/*--------------------------------*- C++ -*----------------------------------*\
| =========                 |                                                 |
| \\      /  F ield         | OpenFOAM: The Open Source CFD Toolbox           |
|  \\    /   O peration     | Version:  v2012                                 |
|   \\  /    A nd           | Website:  www.openfoam.com                      |
|    \\/     M anipulation  |                                                 |
\*---------------------------------------------------------------------------*/
FoamFile
{
    version     2.0;
    format      ascii;
    class       volScalarField;
    location    "62500";
    object      p;
}
// * * * * * * * * * * * * * * * * * * * * * * * * * * * * * * * * * * * * * //

dimensions      [0 2 -2 0 0 0 0];


internalField   nonuniform List<scalar> 
169728
(
1.27606e-07
1.2754e-07
1.2754e-07
1.27708e-07
1.24682e-07
1.24606e-07
1.24606e-07
1.24738e-07
1.2252e-07
1.22495e-07
1.22495e-07
1.22605e-07
1.20688e-07
1.2068e-07
1.2068e-07
1.20776e-07
1.19027e-07
1.19026e-07
1.19026e-07
1.19116e-07
1.17469e-07
1.17471e-07
1.17471e-07
1.17556e-07
1.15979e-07
1.15982e-07
1.15982e-07
1.16064e-07
1.14536e-07
1.14538e-07
1.14538e-07
1.14619e-07
1.13127e-07
1.13129e-07
1.13129e-07
1.13207e-07
1.11743e-07
1.11744e-07
1.11744e-07
1.11822e-07
1.10377e-07
1.10378e-07
1.10378e-07
1.10455e-07
1.09026e-07
1.09026e-07
1.09026e-07
1.09103e-07
1.07686e-07
1.07686e-07
1.07686e-07
1.07762e-07
1.06354e-07
1.06354e-07
1.06354e-07
1.06429e-07
1.05028e-07
1.05029e-07
1.05029e-07
1.05104e-07
1.03708e-07
1.03708e-07
1.03708e-07
1.03783e-07
1.02392e-07
1.02392e-07
1.02392e-07
1.02466e-07
1.01078e-07
1.01078e-07
1.01078e-07
1.01153e-07
9.97675e-08
9.97674e-08
9.97675e-08
9.98418e-08
9.84584e-08
9.84583e-08
9.84583e-08
9.85326e-08
9.71508e-08
9.71507e-08
9.71507e-08
9.7225e-08
9.58445e-08
9.58444e-08
9.58444e-08
9.59186e-08
9.45392e-08
9.45391e-08
9.45391e-08
9.46133e-08
9.32347e-08
9.32346e-08
9.32346e-08
9.33087e-08
9.19305e-08
9.19303e-08
9.19304e-08
9.20045e-08
9.06265e-08
9.06264e-08
9.06264e-08
9.07005e-08
8.93226e-08
8.93225e-08
8.93225e-08
8.93966e-08
8.80187e-08
8.80185e-08
8.80185e-08
8.80927e-08
8.67148e-08
8.67146e-08
8.67146e-08
8.67887e-08
8.54109e-08
8.54107e-08
8.54107e-08
8.54848e-08
8.41069e-08
8.41068e-08
8.41068e-08
8.41809e-08
8.2803e-08
8.28029e-08
8.28029e-08
8.2877e-08
8.14991e-08
8.1499e-08
8.14989e-08
8.15731e-08
8.01952e-08
8.0195e-08
8.01951e-08
8.02692e-08
7.88913e-08
7.88911e-08
7.88911e-08
7.89652e-08
7.75874e-08
7.75872e-08
7.75872e-08
7.76613e-08
7.62835e-08
7.62833e-08
7.62833e-08
7.63574e-08
7.49795e-08
7.49794e-08
7.49794e-08
7.50535e-08
7.36757e-08
7.36755e-08
7.36755e-08
7.37496e-08
7.23718e-08
7.23716e-08
7.23716e-08
7.24457e-08
7.10678e-08
7.10677e-08
7.10677e-08
7.11418e-08
6.97639e-08
6.97638e-08
6.97638e-08
6.98379e-08
6.846e-08
6.84598e-08
6.84599e-08
6.85339e-08
6.71561e-08
6.71559e-08
6.71559e-08
6.723e-08
6.58522e-08
6.5852e-08
6.5852e-08
6.59262e-08
6.45483e-08
6.45481e-08
6.45481e-08
6.46222e-08
6.32443e-08
6.32441e-08
6.32442e-08
6.33183e-08
6.19404e-08
6.19402e-08
6.19402e-08
6.20143e-08
6.06365e-08
6.06363e-08
6.06363e-08
6.07104e-08
5.93326e-08
5.93324e-08
5.93324e-08
5.94065e-08
5.80287e-08
5.80285e-08
5.80285e-08
5.81026e-08
5.67247e-08
5.67246e-08
5.67246e-08
5.67987e-08
5.54209e-08
5.54207e-08
5.54207e-08
5.54948e-08
5.4117e-08
5.41168e-08
5.41168e-08
5.41909e-08
5.28131e-08
5.2813e-08
5.28129e-08
5.2887e-08
5.15093e-08
5.15091e-08
5.15091e-08
5.15832e-08
5.02054e-08
5.02053e-08
5.02053e-08
5.02793e-08
4.89016e-08
4.89014e-08
4.89014e-08
4.89755e-08
4.75977e-08
4.75976e-08
4.75975e-08
4.76716e-08
4.62939e-08
4.62937e-08
4.62937e-08
4.63678e-08
4.499e-08
4.49899e-08
4.49899e-08
4.50639e-08
4.36862e-08
4.3686e-08
4.3686e-08
4.37601e-08
4.23824e-08
4.23822e-08
4.23822e-08
4.24563e-08
4.10786e-08
4.10784e-08
4.10784e-08
4.11525e-08
3.97747e-08
3.97746e-08
3.97746e-08
3.98487e-08
3.84709e-08
3.84707e-08
3.84708e-08
3.85448e-08
3.71671e-08
3.71669e-08
3.71669e-08
3.7241e-08
3.58632e-08
3.58631e-08
3.58631e-08
3.59372e-08
3.45594e-08
3.45592e-08
3.45592e-08
3.46333e-08
3.32555e-08
3.32554e-08
3.32554e-08
3.33295e-08
3.19517e-08
3.19515e-08
3.19515e-08
3.20256e-08
3.06479e-08
3.06477e-08
3.06477e-08
3.07218e-08
2.9344e-08
2.93438e-08
2.93438e-08
2.94179e-08
2.80401e-08
2.804e-08
2.804e-08
2.81141e-08
2.67363e-08
2.67361e-08
2.67361e-08
2.68102e-08
2.54324e-08
2.54323e-08
2.54322e-08
2.55064e-08
2.41286e-08
2.41284e-08
2.41284e-08
2.42025e-08
2.28247e-08
2.28245e-08
2.28246e-08
2.28986e-08
2.15209e-08
2.15207e-08
2.15207e-08
2.15948e-08
2.0217e-08
2.02168e-08
2.02168e-08
2.02909e-08
1.89131e-08
1.89129e-08
1.89129e-08
1.89871e-08
1.76093e-08
1.76091e-08
1.76091e-08
1.76832e-08
1.63054e-08
1.63053e-08
1.63053e-08
1.63794e-08
1.50016e-08
1.50014e-08
1.50014e-08
1.50756e-08
1.36978e-08
1.36976e-08
1.36976e-08
1.37717e-08
1.2394e-08
1.23938e-08
1.23938e-08
1.24679e-08
1.10902e-08
1.109e-08
1.109e-08
1.11641e-08
9.78635e-09
9.78616e-09
9.78616e-09
9.86026e-09
8.48256e-09
8.48235e-09
8.48236e-09
8.55645e-09
7.17873e-09
7.17856e-09
7.17859e-09
7.25266e-09
5.87497e-09
5.87479e-09
5.87479e-09
5.94887e-09
4.57123e-09
4.57108e-09
4.57106e-09
4.645e-09
3.26757e-09
3.2674e-09
3.2674e-09
3.34114e-09
1.96517e-09
1.96348e-09
1.96343e-09
2.03788e-09
6.59524e-10
6.8485e-10
6.8478e-10
7.31825e-10
1.28268e-07
1.28487e-07
1.28487e-07
1.28268e-07
1.28487e-07
1.28487e-07
1.28433e-07
1.28433e-07
1.28433e-07
1.28433e-07
1.28487e-07
1.28488e-07
1.28268e-07
1.28487e-07
1.28487e-07
1.28268e-07
1.27708e-07
1.25077e-07
1.2754e-07
1.2754e-07
1.25219e-07
1.25219e-07
1.27708e-07
1.25077e-07
1.2754e-07
1.2754e-07
1.25219e-07
1.25219e-07
1.2754e-07
1.25219e-07
1.25219e-07
1.27708e-07
1.25077e-07
1.2754e-07
1.25219e-07
1.25219e-07
1.25077e-07
1.24738e-07
1.22875e-07
1.24606e-07
1.24606e-07
1.22987e-07
1.22987e-07
1.24738e-07
1.22875e-07
1.24606e-07
1.24606e-07
1.22987e-07
1.22987e-07
1.24606e-07
1.22987e-07
1.22987e-07
1.24738e-07
1.22875e-07
1.24606e-07
1.22987e-07
1.22987e-07
1.22875e-07
1.22605e-07
1.21013e-07
1.22495e-07
1.22495e-07
1.21115e-07
1.21115e-07
1.22604e-07
1.21013e-07
1.22495e-07
1.22495e-07
1.21115e-07
1.21115e-07
1.22495e-07
1.21115e-07
1.21115e-07
1.22605e-07
1.21013e-07
1.22495e-07
1.21115e-07
1.21115e-07
1.21013e-07
1.20776e-07
1.19334e-07
1.2068e-07
1.2068e-07
1.19429e-07
1.19429e-07
1.20776e-07
1.19334e-07
1.2068e-07
1.2068e-07
1.19429e-07
1.19429e-07
1.2068e-07
1.19429e-07
1.19429e-07
1.20776e-07
1.19334e-07
1.2068e-07
1.19429e-07
1.19429e-07
1.19334e-07
1.19116e-07
1.17763e-07
1.19026e-07
1.19026e-07
1.17853e-07
1.17853e-07
1.19116e-07
1.17763e-07
1.19026e-07
1.19026e-07
1.17853e-07
1.17853e-07
1.19026e-07
1.17853e-07
1.17853e-07
1.19116e-07
1.17763e-07
1.19026e-07
1.17853e-07
1.17853e-07
1.17763e-07
1.17556e-07
1.16263e-07
1.17471e-07
1.17471e-07
1.16349e-07
1.16349e-07
1.17556e-07
1.16263e-07
1.17471e-07
1.17471e-07
1.16349e-07
1.16349e-07
1.17471e-07
1.16349e-07
1.16349e-07
1.17556e-07
1.16263e-07
1.17471e-07
1.16349e-07
1.1635e-07
1.16263e-07
1.16064e-07
1.14813e-07
1.15982e-07
1.15982e-07
1.14896e-07
1.14896e-07
1.16064e-07
1.14813e-07
1.15982e-07
1.15982e-07
1.14896e-07
1.14896e-07
1.15982e-07
1.14896e-07
1.14896e-07
1.16064e-07
1.14813e-07
1.15982e-07
1.14896e-07
1.14896e-07
1.14813e-07
1.14619e-07
1.13398e-07
1.14538e-07
1.14538e-07
1.13478e-07
1.13478e-07
1.14619e-07
1.13398e-07
1.14538e-07
1.14538e-07
1.13478e-07
1.13478e-07
1.14538e-07
1.13478e-07
1.13478e-07
1.14619e-07
1.13398e-07
1.14538e-07
1.13478e-07
1.13478e-07
1.13398e-07
1.13208e-07
1.12009e-07
1.13129e-07
1.13129e-07
1.12088e-07
1.12088e-07
1.13207e-07
1.12009e-07
1.13129e-07
1.13129e-07
1.12088e-07
1.12088e-07
1.13129e-07
1.12088e-07
1.12088e-07
1.13207e-07
1.12009e-07
1.13129e-07
1.12088e-07
1.12088e-07
1.12009e-07
1.11822e-07
1.1064e-07
1.11744e-07
1.11744e-07
1.10718e-07
1.10718e-07
1.11822e-07
1.1064e-07
1.11744e-07
1.11744e-07
1.10718e-07
1.10718e-07
1.11744e-07
1.10718e-07
1.10718e-07
1.11822e-07
1.1064e-07
1.11744e-07
1.10718e-07
1.10718e-07
1.1064e-07
1.10455e-07
1.09286e-07
1.10378e-07
1.10378e-07
1.09363e-07
1.09363e-07
1.10455e-07
1.09286e-07
1.10378e-07
1.10378e-07
1.09363e-07
1.09363e-07
1.10378e-07
1.09363e-07
1.09363e-07
1.10455e-07
1.09286e-07
1.10378e-07
1.09363e-07
1.09363e-07
1.09286e-07
1.09103e-07
1.07944e-07
1.09026e-07
1.09026e-07
1.0802e-07
1.0802e-07
1.09103e-07
1.07944e-07
1.09026e-07
1.09026e-07
1.0802e-07
1.0802e-07
1.09026e-07
1.0802e-07
1.0802e-07
1.09103e-07
1.07944e-07
1.09026e-07
1.0802e-07
1.0802e-07
1.07944e-07
1.07762e-07
1.06611e-07
1.07686e-07
1.07686e-07
1.06686e-07
1.06686e-07
1.07762e-07
1.0661e-07
1.07686e-07
1.07686e-07
1.06686e-07
1.06686e-07
1.07686e-07
1.06686e-07
1.06686e-07
1.07762e-07
1.0661e-07
1.07686e-07
1.06686e-07
1.06686e-07
1.06611e-07
1.06429e-07
1.05284e-07
1.06354e-07
1.06354e-07
1.05359e-07
1.05359e-07
1.06429e-07
1.05284e-07
1.06354e-07
1.06354e-07
1.05359e-07
1.05359e-07
1.06354e-07
1.05359e-07
1.05359e-07
1.06429e-07
1.05284e-07
1.06354e-07
1.05359e-07
1.05359e-07
1.05284e-07
1.05104e-07
1.03963e-07
1.05029e-07
1.05029e-07
1.04038e-07
1.04038e-07
1.05104e-07
1.03963e-07
1.05029e-07
1.05029e-07
1.04038e-07
1.04038e-07
1.05029e-07
1.04038e-07
1.04038e-07
1.05104e-07
1.03963e-07
1.05029e-07
1.04038e-07
1.04038e-07
1.03963e-07
1.03783e-07
1.02646e-07
1.03708e-07
1.03708e-07
1.02721e-07
1.02721e-07
1.03783e-07
1.02646e-07
1.03708e-07
1.03708e-07
1.02721e-07
1.02721e-07
1.03708e-07
1.02721e-07
1.02721e-07
1.03783e-07
1.02646e-07
1.03708e-07
1.02721e-07
1.02721e-07
1.02646e-07
1.02466e-07
1.01332e-07
1.02392e-07
1.02392e-07
1.01407e-07
1.01407e-07
1.02466e-07
1.01332e-07
1.02392e-07
1.02392e-07
1.01407e-07
1.01407e-07
1.02392e-07
1.01407e-07
1.01407e-07
1.02467e-07
1.01332e-07
1.02392e-07
1.01407e-07
1.01407e-07
1.01332e-07
1.01153e-07
1.0002e-07
1.01078e-07
1.01078e-07
1.00095e-07
1.00095e-07
1.01153e-07
1.0002e-07
1.01078e-07
1.01078e-07
1.00095e-07
1.00095e-07
1.01078e-07
1.00095e-07
1.00095e-07
1.01153e-07
1.00021e-07
1.01078e-07
1.00095e-07
1.00095e-07
1.0002e-07
9.98418e-08
9.87111e-08
9.97674e-08
9.97675e-08
9.87854e-08
9.87854e-08
9.98418e-08
9.87111e-08
9.97675e-08
9.97674e-08
9.87854e-08
9.87855e-08
9.97675e-08
9.87854e-08
9.87854e-08
9.98419e-08
9.8711e-08
9.97674e-08
9.87854e-08
9.87854e-08
9.8711e-08
9.85326e-08
9.74032e-08
9.84583e-08
9.84583e-08
9.74775e-08
9.74775e-08
9.85326e-08
9.74032e-08
9.84583e-08
9.84583e-08
9.74775e-08
9.74775e-08
9.84583e-08
9.74775e-08
9.74775e-08
9.85326e-08
9.74032e-08
9.84583e-08
9.74775e-08
9.74775e-08
9.74032e-08
9.72249e-08
9.60967e-08
9.71507e-08
9.71507e-08
9.61708e-08
9.61708e-08
9.72249e-08
9.60966e-08
9.71507e-08
9.71507e-08
9.61708e-08
9.61709e-08
9.71507e-08
9.61709e-08
9.61709e-08
9.7225e-08
9.60966e-08
9.71507e-08
9.61709e-08
9.61709e-08
9.60967e-08
9.59186e-08
9.47912e-08
9.58444e-08
9.58444e-08
9.48653e-08
9.48653e-08
9.59186e-08
9.47912e-08
9.58444e-08
9.58444e-08
9.48654e-08
9.48653e-08
9.58444e-08
9.48653e-08
9.48654e-08
9.59186e-08
9.47912e-08
9.58444e-08
9.48653e-08
9.48654e-08
9.47912e-08
9.46132e-08
9.34865e-08
9.45391e-08
9.45391e-08
9.35606e-08
9.35606e-08
9.46133e-08
9.34866e-08
9.45391e-08
9.45391e-08
9.35606e-08
9.35606e-08
9.45391e-08
9.35606e-08
9.35606e-08
9.46133e-08
9.34865e-08
9.45391e-08
9.35607e-08
9.35606e-08
9.34865e-08
9.33086e-08
9.21823e-08
9.32345e-08
9.32345e-08
9.22564e-08
9.22564e-08
9.33087e-08
9.21823e-08
9.32345e-08
9.32345e-08
9.22564e-08
9.22564e-08
9.32345e-08
9.22564e-08
9.22564e-08
9.33087e-08
9.21823e-08
9.32345e-08
9.22564e-08
9.22564e-08
9.21823e-08
9.20045e-08
9.08783e-08
9.19304e-08
9.19303e-08
9.09524e-08
9.09524e-08
9.20045e-08
9.08783e-08
9.19304e-08
9.19304e-08
9.09524e-08
9.09524e-08
9.19304e-08
9.09524e-08
9.09524e-08
9.20045e-08
9.08783e-08
9.19304e-08
9.09524e-08
9.09523e-08
9.08783e-08
9.07004e-08
8.95744e-08
9.06264e-08
9.06264e-08
8.96484e-08
8.96484e-08
9.07005e-08
8.95743e-08
9.06264e-08
9.06264e-08
8.96484e-08
8.96484e-08
9.06264e-08
8.96485e-08
8.96484e-08
9.07005e-08
8.95743e-08
9.06264e-08
8.96484e-08
8.96484e-08
8.95744e-08
8.93966e-08
8.82704e-08
8.93225e-08
8.93225e-08
8.83445e-08
8.83445e-08
8.93965e-08
8.82704e-08
8.93225e-08
8.93224e-08
8.83445e-08
8.83445e-08
8.93224e-08
8.83445e-08
8.83445e-08
8.93966e-08
8.82704e-08
8.93225e-08
8.83445e-08
8.83445e-08
8.82705e-08
8.80926e-08
8.69666e-08
8.80185e-08
8.80185e-08
8.70406e-08
8.70406e-08
8.80926e-08
8.69665e-08
8.80185e-08
8.80185e-08
8.70406e-08
8.70406e-08
8.80186e-08
8.70406e-08
8.70406e-08
8.80926e-08
8.69665e-08
8.80185e-08
8.70406e-08
8.70406e-08
8.69665e-08
8.67887e-08
8.56626e-08
8.67146e-08
8.67146e-08
8.57367e-08
8.57367e-08
8.67887e-08
8.56626e-08
8.67146e-08
8.67146e-08
8.57367e-08
8.57367e-08
8.67146e-08
8.57367e-08
8.57367e-08
8.67887e-08
8.56627e-08
8.67146e-08
8.57367e-08
8.57367e-08
8.56626e-08
8.54848e-08
8.43587e-08
8.54107e-08
8.54107e-08
8.44328e-08
8.44328e-08
8.54848e-08
8.43588e-08
8.54107e-08
8.54107e-08
8.44328e-08
8.44328e-08
8.54107e-08
8.44328e-08
8.44328e-08
8.54848e-08
8.43587e-08
8.54107e-08
8.44328e-08
8.44328e-08
8.43587e-08
8.41809e-08
8.30548e-08
8.41068e-08
8.41068e-08
8.31289e-08
8.31289e-08
8.41809e-08
8.30548e-08
8.41068e-08
8.41068e-08
8.31289e-08
8.31288e-08
8.41068e-08
8.31289e-08
8.31289e-08
8.41809e-08
8.30548e-08
8.41068e-08
8.31289e-08
8.31288e-08
8.30548e-08
8.2877e-08
8.17509e-08
8.28029e-08
8.28029e-08
8.18249e-08
8.18249e-08
8.2877e-08
8.17508e-08
8.28029e-08
8.28029e-08
8.18249e-08
8.1825e-08
8.28029e-08
8.18249e-08
8.18249e-08
8.2877e-08
8.17509e-08
8.28029e-08
8.18249e-08
8.18249e-08
8.17508e-08
8.1573e-08
8.04469e-08
8.1499e-08
8.14989e-08
8.0521e-08
8.0521e-08
8.1573e-08
8.04469e-08
8.14989e-08
8.1499e-08
8.0521e-08
8.0521e-08
8.14989e-08
8.0521e-08
8.0521e-08
8.15731e-08
8.04469e-08
8.1499e-08
8.0521e-08
8.0521e-08
8.0447e-08
8.02691e-08
7.9143e-08
8.0195e-08
8.0195e-08
7.92171e-08
7.92171e-08
8.02691e-08
7.91431e-08
8.0195e-08
8.0195e-08
7.92171e-08
7.92171e-08
8.01951e-08
7.92171e-08
7.92171e-08
8.02691e-08
7.9143e-08
8.0195e-08
7.92171e-08
7.92171e-08
7.9143e-08
7.89652e-08
7.78391e-08
7.88911e-08
7.88911e-08
7.79132e-08
7.79132e-08
7.89652e-08
7.78391e-08
7.88911e-08
7.88911e-08
7.79132e-08
7.79132e-08
7.88911e-08
7.79132e-08
7.79132e-08
7.89652e-08
7.78391e-08
7.88911e-08
7.79132e-08
7.79132e-08
7.78391e-08
7.76613e-08
7.65352e-08
7.75872e-08
7.75872e-08
7.66093e-08
7.66092e-08
7.76613e-08
7.65352e-08
7.75872e-08
7.75872e-08
7.66092e-08
7.66093e-08
7.75872e-08
7.66092e-08
7.66092e-08
7.76613e-08
7.65352e-08
7.75872e-08
7.66093e-08
7.66093e-08
7.65352e-08
7.63574e-08
7.52313e-08
7.62833e-08
7.62833e-08
7.53054e-08
7.53053e-08
7.63574e-08
7.52313e-08
7.62833e-08
7.62833e-08
7.53053e-08
7.53054e-08
7.62833e-08
7.53053e-08
7.53053e-08
7.63574e-08
7.52313e-08
7.62833e-08
7.53053e-08
7.53054e-08
7.52313e-08
7.50535e-08
7.39274e-08
7.49794e-08
7.49794e-08
7.40015e-08
7.40014e-08
7.50535e-08
7.39274e-08
7.49794e-08
7.49794e-08
7.40015e-08
7.40015e-08
7.49794e-08
7.40015e-08
7.40015e-08
7.50535e-08
7.39274e-08
7.49794e-08
7.40014e-08
7.40015e-08
7.39274e-08
7.37496e-08
7.26235e-08
7.36755e-08
7.36755e-08
7.26976e-08
7.26976e-08
7.37496e-08
7.26235e-08
7.36755e-08
7.36755e-08
7.26976e-08
7.26976e-08
7.36755e-08
7.26976e-08
7.26976e-08
7.37496e-08
7.26235e-08
7.36755e-08
7.26976e-08
7.26976e-08
7.26235e-08
7.24457e-08
7.13196e-08
7.23716e-08
7.23716e-08
7.13937e-08
7.13937e-08
7.24457e-08
7.13196e-08
7.23716e-08
7.23716e-08
7.13937e-08
7.13937e-08
7.23716e-08
7.13937e-08
7.13937e-08
7.24457e-08
7.13196e-08
7.23716e-08
7.13937e-08
7.13937e-08
7.13196e-08
7.11418e-08
7.00157e-08
7.10677e-08
7.10677e-08
7.00898e-08
7.00897e-08
7.11418e-08
7.00157e-08
7.10677e-08
7.10677e-08
7.00898e-08
7.00897e-08
7.10677e-08
7.00898e-08
7.00898e-08
7.11418e-08
7.00157e-08
7.10677e-08
7.00897e-08
7.00898e-08
7.00157e-08
6.98379e-08
6.87118e-08
6.97638e-08
6.97638e-08
6.87858e-08
6.87859e-08
6.98379e-08
6.87118e-08
6.97638e-08
6.97638e-08
6.87859e-08
6.87858e-08
6.97638e-08
6.87858e-08
6.87858e-08
6.98379e-08
6.87118e-08
6.97638e-08
6.87858e-08
6.87858e-08
6.87117e-08
6.85339e-08
6.74079e-08
6.84599e-08
6.84599e-08
6.74819e-08
6.74819e-08
6.85339e-08
6.74079e-08
6.84599e-08
6.84599e-08
6.74819e-08
6.7482e-08
6.84598e-08
6.74819e-08
6.74819e-08
6.8534e-08
6.74079e-08
6.84598e-08
6.74819e-08
6.74819e-08
6.74078e-08
6.723e-08
6.6104e-08
6.7156e-08
6.71559e-08
6.6178e-08
6.6178e-08
6.723e-08
6.6104e-08
6.71559e-08
6.7156e-08
6.6178e-08
6.6178e-08
6.71559e-08
6.6178e-08
6.6178e-08
6.72301e-08
6.61039e-08
6.71559e-08
6.6178e-08
6.6178e-08
6.6104e-08
6.59261e-08
6.48e-08
6.5852e-08
6.5852e-08
6.48741e-08
6.48741e-08
6.59261e-08
6.48e-08
6.5852e-08
6.5852e-08
6.48741e-08
6.48741e-08
6.5852e-08
6.48741e-08
6.48741e-08
6.59261e-08
6.48e-08
6.5852e-08
6.48741e-08
6.48741e-08
6.48e-08
6.46222e-08
6.34961e-08
6.45481e-08
6.45481e-08
6.35701e-08
6.35701e-08
6.46222e-08
6.34961e-08
6.45481e-08
6.45481e-08
6.35701e-08
6.35701e-08
6.45481e-08
6.35701e-08
6.35701e-08
6.46222e-08
6.34961e-08
6.45481e-08
6.35701e-08
6.35702e-08
6.34961e-08
6.33182e-08
6.21921e-08
6.32441e-08
6.32441e-08
6.22662e-08
6.22662e-08
6.33183e-08
6.21921e-08
6.32442e-08
6.32441e-08
6.22662e-08
6.22662e-08
6.32441e-08
6.22662e-08
6.22662e-08
6.33183e-08
6.21921e-08
6.32442e-08
6.22662e-08
6.22662e-08
6.21921e-08
6.20143e-08
6.08882e-08
6.19402e-08
6.19402e-08
6.09623e-08
6.09623e-08
6.20143e-08
6.08882e-08
6.19402e-08
6.19403e-08
6.09623e-08
6.09623e-08
6.19402e-08
6.09623e-08
6.09623e-08
6.20143e-08
6.08882e-08
6.19402e-08
6.09623e-08
6.09623e-08
6.08882e-08
6.07104e-08
5.95843e-08
6.06363e-08
6.06363e-08
5.96584e-08
5.96584e-08
6.07104e-08
5.95843e-08
6.06363e-08
6.06363e-08
5.96584e-08
5.96584e-08
6.06363e-08
5.96584e-08
5.96584e-08
6.07104e-08
5.95843e-08
6.06363e-08
5.96584e-08
5.96584e-08
5.95843e-08
5.94065e-08
5.82804e-08
5.93324e-08
5.93324e-08
5.83545e-08
5.83544e-08
5.94065e-08
5.82804e-08
5.93324e-08
5.93324e-08
5.83545e-08
5.83545e-08
5.93324e-08
5.83545e-08
5.83545e-08
5.94065e-08
5.82804e-08
5.93324e-08
5.83545e-08
5.83545e-08
5.82804e-08
5.81026e-08
5.69765e-08
5.80285e-08
5.80285e-08
5.70506e-08
5.70506e-08
5.81026e-08
5.69765e-08
5.80285e-08
5.80285e-08
5.70506e-08
5.70506e-08
5.80285e-08
5.70506e-08
5.70506e-08
5.81026e-08
5.69765e-08
5.80285e-08
5.70506e-08
5.70506e-08
5.69765e-08
5.67986e-08
5.56726e-08
5.67246e-08
5.67246e-08
5.57467e-08
5.57467e-08
5.67987e-08
5.56726e-08
5.67246e-08
5.67246e-08
5.57467e-08
5.57467e-08
5.67246e-08
5.57467e-08
5.57467e-08
5.67987e-08
5.56726e-08
5.67246e-08
5.57467e-08
5.57467e-08
5.56726e-08
5.54948e-08
5.43687e-08
5.54207e-08
5.54207e-08
5.44428e-08
5.44428e-08
5.54948e-08
5.43687e-08
5.54207e-08
5.54207e-08
5.44428e-08
5.44428e-08
5.54207e-08
5.44428e-08
5.44428e-08
5.54948e-08
5.43687e-08
5.54207e-08
5.44428e-08
5.44428e-08
5.43687e-08
5.41909e-08
5.30649e-08
5.41168e-08
5.41168e-08
5.31389e-08
5.31389e-08
5.41909e-08
5.30649e-08
5.41168e-08
5.41168e-08
5.31389e-08
5.31389e-08
5.41168e-08
5.31389e-08
5.31389e-08
5.41909e-08
5.30648e-08
5.41168e-08
5.31389e-08
5.31389e-08
5.30649e-08
5.2887e-08
5.1761e-08
5.2813e-08
5.28129e-08
5.18351e-08
5.18351e-08
5.2887e-08
5.1761e-08
5.28129e-08
5.2813e-08
5.18351e-08
5.1835e-08
5.28129e-08
5.1835e-08
5.18351e-08
5.28871e-08
5.1761e-08
5.2813e-08
5.18351e-08
5.1835e-08
5.1761e-08
5.15832e-08
5.04571e-08
5.15091e-08
5.15091e-08
5.05312e-08
5.05312e-08
5.15832e-08
5.04572e-08
5.15091e-08
5.15091e-08
5.05312e-08
5.05312e-08
5.15091e-08
5.05312e-08
5.05312e-08
5.15832e-08
5.04572e-08
5.15091e-08
5.05312e-08
5.05312e-08
5.04571e-08
5.02793e-08
4.91533e-08
5.02052e-08
5.02053e-08
4.92274e-08
4.92274e-08
5.02794e-08
4.91533e-08
5.02052e-08
5.02053e-08
4.92274e-08
4.92274e-08
5.02053e-08
4.92274e-08
4.92274e-08
5.02794e-08
4.91533e-08
5.02053e-08
4.92274e-08
4.92273e-08
4.91533e-08
4.89755e-08
4.78495e-08
4.89014e-08
4.89014e-08
4.79235e-08
4.79235e-08
4.89755e-08
4.78495e-08
4.89014e-08
4.89014e-08
4.79235e-08
4.79235e-08
4.89014e-08
4.79235e-08
4.79235e-08
4.89755e-08
4.78494e-08
4.89014e-08
4.79235e-08
4.79235e-08
4.78494e-08
4.76716e-08
4.65456e-08
4.75976e-08
4.75975e-08
4.66197e-08
4.66197e-08
4.76716e-08
4.65456e-08
4.75975e-08
4.75976e-08
4.66197e-08
4.66197e-08
4.75975e-08
4.66197e-08
4.66197e-08
4.76716e-08
4.65456e-08
4.75976e-08
4.66197e-08
4.66197e-08
4.65456e-08
4.63678e-08
4.52418e-08
4.62937e-08
4.62937e-08
4.53158e-08
4.53158e-08
4.63678e-08
4.52418e-08
4.62937e-08
4.62937e-08
4.53158e-08
4.53158e-08
4.62937e-08
4.53158e-08
4.53158e-08
4.63678e-08
4.52418e-08
4.62937e-08
4.53158e-08
4.53158e-08
4.52417e-08
4.50639e-08
4.3938e-08
4.49899e-08
4.49899e-08
4.4012e-08
4.4012e-08
4.5064e-08
4.39379e-08
4.49898e-08
4.49899e-08
4.4012e-08
4.4012e-08
4.49898e-08
4.4012e-08
4.4012e-08
4.5064e-08
4.39379e-08
4.49899e-08
4.4012e-08
4.4012e-08
4.39379e-08
4.37601e-08
4.26341e-08
4.3686e-08
4.3686e-08
4.27081e-08
4.27082e-08
4.37601e-08
4.26341e-08
4.36861e-08
4.3686e-08
4.27082e-08
4.27082e-08
4.36861e-08
4.27082e-08
4.27082e-08
4.37601e-08
4.26341e-08
4.3686e-08
4.27082e-08
4.27081e-08
4.26341e-08
4.24563e-08
4.13303e-08
4.23822e-08
4.23822e-08
4.14043e-08
4.14043e-08
4.24563e-08
4.13302e-08
4.23822e-08
4.23822e-08
4.14043e-08
4.14044e-08
4.23822e-08
4.14043e-08
4.14043e-08
4.24563e-08
4.13303e-08
4.23822e-08
4.14043e-08
4.14043e-08
4.13303e-08
4.11525e-08
4.00264e-08
4.10784e-08
4.10784e-08
4.01005e-08
4.01005e-08
4.11524e-08
4.00265e-08
4.10784e-08
4.10784e-08
4.01005e-08
4.01005e-08
4.10784e-08
4.01005e-08
4.01005e-08
4.11525e-08
4.00265e-08
4.10784e-08
4.01005e-08
4.01005e-08
4.00264e-08
3.98486e-08
3.87227e-08
3.97745e-08
3.97746e-08
3.87967e-08
3.87967e-08
3.98487e-08
3.87226e-08
3.97745e-08
3.97746e-08
3.87967e-08
3.87967e-08
3.97746e-08
3.87967e-08
3.87967e-08
3.98487e-08
3.87226e-08
3.97746e-08
3.87967e-08
3.87967e-08
3.87226e-08
3.85448e-08
3.74188e-08
3.84707e-08
3.84707e-08
3.74929e-08
3.74929e-08
3.85448e-08
3.74188e-08
3.84708e-08
3.84707e-08
3.74929e-08
3.74929e-08
3.84708e-08
3.74929e-08
3.74929e-08
3.85448e-08
3.74188e-08
3.84707e-08
3.74929e-08
3.74929e-08
3.74188e-08
3.7241e-08
3.6115e-08
3.71669e-08
3.71669e-08
3.6189e-08
3.6189e-08
3.7241e-08
3.61149e-08
3.71669e-08
3.71669e-08
3.6189e-08
3.61891e-08
3.71669e-08
3.6189e-08
3.6189e-08
3.7241e-08
3.6115e-08
3.71669e-08
3.6189e-08
3.61891e-08
3.6115e-08
3.59372e-08
3.48111e-08
3.58631e-08
3.5863e-08
3.48852e-08
3.48852e-08
3.59371e-08
3.48112e-08
3.58631e-08
3.58631e-08
3.48852e-08
3.48852e-08
3.58631e-08
3.48852e-08
3.48852e-08
3.59372e-08
3.48111e-08
3.58631e-08
3.48852e-08
3.48852e-08
3.48111e-08
3.46333e-08
3.35073e-08
3.45592e-08
3.45592e-08
3.35813e-08
3.35813e-08
3.46333e-08
3.35073e-08
3.45592e-08
3.45592e-08
3.35813e-08
3.35813e-08
3.45592e-08
3.35813e-08
3.35813e-08
3.46333e-08
3.35073e-08
3.45592e-08
3.35814e-08
3.35813e-08
3.35073e-08
3.33295e-08
3.22034e-08
3.32553e-08
3.32554e-08
3.22775e-08
3.22775e-08
3.33295e-08
3.22034e-08
3.32554e-08
3.32554e-08
3.22775e-08
3.22775e-08
3.32554e-08
3.22775e-08
3.22775e-08
3.33294e-08
3.22034e-08
3.32554e-08
3.22775e-08
3.22775e-08
3.22034e-08
3.20256e-08
3.08996e-08
3.19515e-08
3.19515e-08
3.09736e-08
3.09736e-08
3.20256e-08
3.08996e-08
3.19515e-08
3.19515e-08
3.09736e-08
3.09736e-08
3.19515e-08
3.09736e-08
3.09736e-08
3.20256e-08
3.08996e-08
3.19515e-08
3.09736e-08
3.09736e-08
3.08996e-08
3.07218e-08
2.95957e-08
3.06477e-08
3.06476e-08
2.96698e-08
2.96698e-08
3.07217e-08
2.95957e-08
3.06477e-08
3.06477e-08
2.96698e-08
2.96698e-08
3.06477e-08
2.96698e-08
2.96698e-08
3.07218e-08
2.95957e-08
3.06477e-08
2.96698e-08
2.96698e-08
2.95957e-08
2.94179e-08
2.82919e-08
2.93438e-08
2.93438e-08
2.83659e-08
2.83659e-08
2.94179e-08
2.82919e-08
2.93438e-08
2.93438e-08
2.83659e-08
2.83659e-08
2.93438e-08
2.83659e-08
2.83659e-08
2.94179e-08
2.82919e-08
2.93438e-08
2.83659e-08
2.83659e-08
2.82919e-08
2.81141e-08
2.6988e-08
2.804e-08
2.804e-08
2.70621e-08
2.70621e-08
2.81141e-08
2.6988e-08
2.804e-08
2.804e-08
2.70621e-08
2.70621e-08
2.804e-08
2.70621e-08
2.70621e-08
2.81141e-08
2.6988e-08
2.804e-08
2.70621e-08
2.70621e-08
2.6988e-08
2.68102e-08
2.56841e-08
2.67361e-08
2.67361e-08
2.57582e-08
2.57582e-08
2.68102e-08
2.56842e-08
2.67361e-08
2.67361e-08
2.57582e-08
2.57582e-08
2.67361e-08
2.57582e-08
2.57582e-08
2.68102e-08
2.56841e-08
2.67361e-08
2.57582e-08
2.57582e-08
2.56841e-08
2.55063e-08
2.43803e-08
2.54323e-08
2.54322e-08
2.44544e-08
2.44544e-08
2.55063e-08
2.43803e-08
2.54322e-08
2.54323e-08
2.44544e-08
2.44543e-08
2.54322e-08
2.44544e-08
2.44543e-08
2.55063e-08
2.43803e-08
2.54322e-08
2.44543e-08
2.44544e-08
2.43803e-08
2.42025e-08
2.30764e-08
2.41284e-08
2.41284e-08
2.31505e-08
2.31505e-08
2.42025e-08
2.30765e-08
2.41284e-08
2.41284e-08
2.31505e-08
2.31505e-08
2.41284e-08
2.31505e-08
2.31505e-08
2.42025e-08
2.30765e-08
2.41284e-08
2.31505e-08
2.31505e-08
2.30764e-08
2.28986e-08
2.17726e-08
2.28245e-08
2.28246e-08
2.18466e-08
2.18466e-08
2.28986e-08
2.17726e-08
2.28246e-08
2.28245e-08
2.18466e-08
2.18466e-08
2.28245e-08
2.18466e-08
2.18466e-08
2.28987e-08
2.17726e-08
2.28245e-08
2.18466e-08
2.18466e-08
2.17726e-08
2.15948e-08
2.04687e-08
2.15207e-08
2.15207e-08
2.05428e-08
2.05428e-08
2.15948e-08
2.04687e-08
2.15207e-08
2.15207e-08
2.05428e-08
2.05428e-08
2.15207e-08
2.05428e-08
2.05428e-08
2.15948e-08
2.04687e-08
2.15207e-08
2.05428e-08
2.05428e-08
2.04687e-08
2.02909e-08
1.91649e-08
2.02168e-08
2.02168e-08
1.92389e-08
1.92389e-08
2.02909e-08
1.91649e-08
2.02168e-08
2.02168e-08
1.92389e-08
1.92389e-08
2.02168e-08
1.92389e-08
1.92389e-08
2.02909e-08
1.91649e-08
2.02168e-08
1.92389e-08
1.92389e-08
1.91648e-08
1.8987e-08
1.7861e-08
1.89129e-08
1.89129e-08
1.79351e-08
1.7935e-08
1.8987e-08
1.7861e-08
1.89129e-08
1.89129e-08
1.7935e-08
1.79351e-08
1.89129e-08
1.7935e-08
1.79351e-08
1.8987e-08
1.7861e-08
1.89129e-08
1.79351e-08
1.79351e-08
1.7861e-08
1.76832e-08
1.65572e-08
1.76091e-08
1.76091e-08
1.66312e-08
1.66312e-08
1.76832e-08
1.65572e-08
1.76091e-08
1.76091e-08
1.66312e-08
1.66312e-08
1.76091e-08
1.66312e-08
1.66312e-08
1.76832e-08
1.65572e-08
1.76091e-08
1.66312e-08
1.66312e-08
1.65571e-08
1.63793e-08
1.52533e-08
1.63053e-08
1.63053e-08
1.53274e-08
1.53274e-08
1.63793e-08
1.52533e-08
1.63053e-08
1.63053e-08
1.53274e-08
1.53274e-08
1.63053e-08
1.53274e-08
1.53274e-08
1.63794e-08
1.52533e-08
1.63053e-08
1.53274e-08
1.53274e-08
1.52533e-08
1.50755e-08
1.39495e-08
1.50014e-08
1.50014e-08
1.40236e-08
1.40236e-08
1.50755e-08
1.39495e-08
1.50014e-08
1.50014e-08
1.40236e-08
1.40236e-08
1.50015e-08
1.40236e-08
1.40236e-08
1.50755e-08
1.39495e-08
1.50014e-08
1.40236e-08
1.40236e-08
1.39495e-08
1.37717e-08
1.26457e-08
1.36976e-08
1.36976e-08
1.27198e-08
1.27198e-08
1.37717e-08
1.26457e-08
1.36976e-08
1.36976e-08
1.27198e-08
1.27198e-08
1.36976e-08
1.27198e-08
1.27197e-08
1.37717e-08
1.26457e-08
1.36976e-08
1.27198e-08
1.27198e-08
1.26457e-08
1.24679e-08
1.13419e-08
1.23938e-08
1.23938e-08
1.14159e-08
1.14159e-08
1.24679e-08
1.13419e-08
1.23938e-08
1.23938e-08
1.1416e-08
1.14159e-08
1.23938e-08
1.14159e-08
1.14159e-08
1.24679e-08
1.13419e-08
1.23938e-08
1.1416e-08
1.14159e-08
1.13419e-08
1.11641e-08
1.00381e-08
1.109e-08
1.109e-08
1.01121e-08
1.01121e-08
1.11641e-08
1.00381e-08
1.109e-08
1.109e-08
1.01121e-08
1.01121e-08
1.109e-08
1.01121e-08
1.01121e-08
1.11641e-08
1.00381e-08
1.109e-08
1.01121e-08
1.01121e-08
1.0038e-08
9.86027e-09
8.73428e-09
9.78617e-09
9.78616e-09
8.80832e-09
8.8083e-09
9.86026e-09
8.73425e-09
9.78615e-09
9.78617e-09
8.80831e-09
8.80831e-09
9.78616e-09
8.8083e-09
8.8083e-09
9.86025e-09
8.73423e-09
9.78616e-09
8.8083e-09
8.8083e-09
8.73424e-09
8.55645e-09
7.43041e-09
8.48237e-09
8.48235e-09
7.50449e-09
7.50448e-09
8.55645e-09
7.43044e-09
8.48238e-09
8.48235e-09
7.5045e-09
7.50451e-09
8.48235e-09
7.50449e-09
7.50449e-09
8.55644e-09
7.43046e-09
8.48236e-09
7.50453e-09
7.5045e-09
7.43045e-09
7.25262e-09
6.12662e-09
7.17855e-09
7.17855e-09
6.20068e-09
6.20067e-09
7.25263e-09
6.12661e-09
7.17856e-09
7.17858e-09
6.20068e-09
6.20069e-09
7.17856e-09
6.2007e-09
6.20069e-09
7.25267e-09
6.12664e-09
7.17858e-09
6.20069e-09
6.20071e-09
6.12666e-09
5.94883e-09
4.8228e-09
5.87478e-09
5.87477e-09
4.89687e-09
4.89689e-09
5.94881e-09
4.82283e-09
5.87478e-09
5.87479e-09
4.89686e-09
4.89687e-09
5.87481e-09
4.89688e-09
4.89688e-09
5.94884e-09
4.8228e-09
5.87481e-09
4.89687e-09
4.89686e-09
4.82277e-09
4.64502e-09
3.51888e-09
4.57106e-09
4.57108e-09
3.59297e-09
3.59297e-09
4.64505e-09
3.51888e-09
4.57106e-09
4.57106e-09
3.59296e-09
3.59296e-09
4.57107e-09
3.59296e-09
3.59296e-09
4.64502e-09
3.51887e-09
4.57104e-09
3.59296e-09
3.59296e-09
3.51886e-09
3.34113e-09
2.21487e-09
3.2674e-09
3.2674e-09
2.28838e-09
2.28838e-09
3.34111e-09
2.21487e-09
3.2674e-09
3.2674e-09
2.28837e-09
2.28837e-09
3.2674e-09
2.28838e-09
2.28836e-09
3.34113e-09
2.21485e-09
3.2674e-09
2.28836e-09
2.28835e-09
2.21485e-09
2.0379e-09
9.12302e-10
1.9635e-09
1.96349e-09
9.96921e-10
9.96931e-10
2.03789e-09
9.12304e-10
1.96346e-09
1.96347e-09
9.96999e-10
9.96887e-10
1.96345e-09
9.96975e-10
9.96827e-10
2.03787e-09
9.12227e-10
1.96343e-09
9.96887e-10
9.96934e-10
9.12212e-10
7.31917e-10
6.84779e-10
6.84805e-10
7.31909e-10
6.84898e-10
6.84761e-10
6.59513e-10
6.59493e-10
6.59484e-10
6.84698e-10
7.31835e-10
6.84837e-10
1.2895e-07
1.29572e-07
1.29238e-07
1.29238e-07
1.30986e-07
1.29832e-07
1.3237e-07
1.29461e-07
1.30986e-07
1.29832e-07
1.29461e-07
1.3237e-07
1.30125e-07
1.32839e-07
1.32839e-07
1.26292e-07
1.27468e-07
1.27559e-07
1.26249e-07
1.2745e-07
1.26234e-07
1.26292e-07
1.27468e-07
1.27559e-07
1.26249e-07
1.27606e-07
1.27606e-07
1.27606e-07
1.25314e-07
1.25314e-07
1.25314e-07
1.25314e-07
1.26353e-07
1.27569e-07
1.27582e-07
1.2667e-07
1.27639e-07
1.26299e-07
1.26725e-07
1.2745e-07
1.26234e-07
1.26353e-07
1.27582e-07
1.27569e-07
1.2667e-07
1.27639e-07
1.26725e-07
1.26299e-07
1.27542e-07
1.27542e-07
1.2647e-07
1.26278e-07
1.26278e-07
1.23857e-07
1.24664e-07
1.24685e-07
1.23842e-07
1.24658e-07
1.23838e-07
1.23857e-07
1.24664e-07
1.24685e-07
1.23842e-07
1.24682e-07
1.24682e-07
1.24682e-07