/*--------------------------------*- C++ -*----------------------------------*\
| =========                 |                                                 |
| \\      /  F ield         | OpenFOAM: The Open Source CFD Toolbox           |
|  \\    /   O peration     | Version:  v2012                                 |
|   \\  /    A nd           | Website:  www.openfoam.com                      |
|    \\/     M anipulation  |                                                 |
\*---------------------------------------------------------------------------*/
FoamFile
{
    version     2.0;
    format      ascii;
    class       volScalarField;
    location    "50000";
    object      p;
}
// * * * * * * * * * * * * * * * * * * * * * * * * * * * * * * * * * * * * * //

dimensions      [0 2 -2 0 0 0 0];


internalField   nonuniform List<scalar> 
169728
(
1.27793e-07
1.27727e-07
1.27727e-07
1.27895e-07
1.2487e-07
1.24793e-07
1.24793e-07
1.24925e-07
1.22707e-07
1.22682e-07
1.22682e-07
1.22792e-07
1.20875e-07
1.20867e-07
1.20867e-07
1.20963e-07
1.19214e-07
1.19213e-07
1.19213e-07
1.19303e-07
1.17656e-07
1.17658e-07
1.17658e-07
1.17743e-07
1.16166e-07
1.16169e-07
1.16169e-07
1.16251e-07
1.14723e-07
1.14725e-07
1.14725e-07
1.14805e-07
1.13314e-07
1.13315e-07
1.13315e-07
1.13394e-07
1.11929e-07
1.1193e-07
1.1193e-07
1.12008e-07
1.10563e-07
1.10564e-07
1.10564e-07
1.10641e-07
1.09212e-07
1.09213e-07
1.09213e-07
1.09289e-07
1.07872e-07
1.07872e-07
1.07872e-07
1.07948e-07
1.0654e-07
1.0654e-07
1.0654e-07
1.06615e-07
1.05214e-07
1.05214e-07
1.05214e-07
1.05289e-07
1.03894e-07
1.03894e-07
1.03894e-07
1.03969e-07
1.02578e-07
1.02578e-07
1.02578e-07
1.02653e-07
1.01267e-07
1.01266e-07
1.01266e-07
1.01341e-07
9.99574e-08
9.99573e-08
9.99574e-08
1.00032e-07
9.86498e-08
9.86497e-08
9.86497e-08
9.8724e-08
9.73428e-08
9.73426e-08
9.73426e-08
9.74169e-08
9.60359e-08
9.60357e-08
9.60357e-08
9.611e-08
9.4729e-08
9.47288e-08
9.47288e-08
9.48031e-08
9.3422e-08
9.34219e-08
9.34219e-08
9.34962e-08
9.2115e-08
9.21149e-08
9.21149e-08
9.21891e-08
9.0808e-08
9.08079e-08
9.08078e-08
9.08821e-08
8.9501e-08
8.95008e-08
8.95009e-08
8.95752e-08
8.8194e-08
8.81939e-08
8.81939e-08
8.82682e-08
8.68872e-08
8.68869e-08
8.68869e-08
8.69612e-08
8.55803e-08
8.55801e-08
8.55802e-08
8.56544e-08
8.42736e-08
8.42734e-08
8.42734e-08
8.43477e-08
8.29669e-08
8.29668e-08
8.29668e-08
8.3041e-08
8.16603e-08
8.16601e-08
8.16601e-08
8.17344e-08
8.03536e-08
8.03535e-08
8.03535e-08
8.04278e-08
7.9047e-08
7.90469e-08
7.90469e-08
7.91211e-08
7.77405e-08
7.77403e-08
7.77403e-08
7.78146e-08
7.6434e-08
7.64338e-08
7.64338e-08
7.65081e-08
7.51275e-08
7.51273e-08
7.51273e-08
7.52016e-08
7.3821e-08
7.38208e-08
7.38208e-08
7.38951e-08
7.25145e-08
7.25143e-08
7.25143e-08
7.25886e-08
7.1208e-08
7.12078e-08
7.12079e-08
7.12821e-08
6.99015e-08
6.99014e-08
6.99013e-08
6.99756e-08
6.8595e-08
6.85949e-08
6.85949e-08
6.86691e-08
6.72885e-08
6.72884e-08
6.72884e-08
6.73626e-08
6.59821e-08
6.59819e-08
6.59819e-08
6.60562e-08
6.46756e-08
6.46754e-08
6.46754e-08
6.47497e-08
6.33691e-08
6.3369e-08
6.3369e-08
6.34432e-08
6.20627e-08
6.20625e-08
6.20625e-08
6.21367e-08
6.07563e-08
6.07561e-08
6.07561e-08
6.08303e-08
5.94499e-08
5.94497e-08
5.94497e-08
5.9524e-08
5.81436e-08
5.81433e-08
5.81434e-08
5.82176e-08
5.68371e-08
5.6837e-08
5.6837e-08
5.69112e-08
5.55308e-08
5.55306e-08
5.55306e-08
5.56049e-08
5.42244e-08
5.42242e-08
5.42242e-08
5.42985e-08
5.2918e-08
5.29178e-08
5.29178e-08
5.29921e-08
5.16116e-08
5.16114e-08
5.16114e-08
5.16857e-08
5.03051e-08
5.0305e-08
5.0305e-08
5.03792e-08
4.89987e-08
4.89985e-08
4.89985e-08
4.90728e-08
4.76922e-08
4.7692e-08
4.7692e-08
4.77663e-08
4.63857e-08
4.63855e-08
4.63856e-08
4.64598e-08
4.50793e-08
4.50791e-08
4.50791e-08
4.51534e-08
4.37728e-08
4.37727e-08
4.37727e-08
4.3847e-08
4.24664e-08
4.24663e-08
4.24663e-08
4.25405e-08
4.116e-08
4.11598e-08
4.11598e-08
4.12341e-08
3.98536e-08
3.98534e-08
3.98534e-08
3.99277e-08
3.85472e-08
3.8547e-08
3.85471e-08
3.86213e-08
3.72408e-08
3.72407e-08
3.72407e-08
3.73149e-08
3.59345e-08
3.59343e-08
3.59343e-08
3.60086e-08
3.46281e-08
3.46279e-08
3.46279e-08
3.47022e-08
3.33217e-08
3.33216e-08
3.33216e-08
3.33958e-08
3.20154e-08
3.20152e-08
3.20152e-08
3.20894e-08
3.0709e-08
3.07088e-08
3.07088e-08
3.07831e-08
2.94026e-08
2.94024e-08
2.94024e-08
2.94767e-08
2.80962e-08
2.8096e-08
2.8096e-08
2.81703e-08
2.67897e-08
2.67895e-08
2.67895e-08
2.68638e-08
2.54832e-08
2.54831e-08
2.54831e-08
2.55573e-08
2.41768e-08
2.41766e-08
2.41766e-08
2.42509e-08
2.28704e-08
2.28702e-08
2.28702e-08
2.29444e-08
2.1564e-08
2.15638e-08
2.15638e-08
2.1638e-08
2.02575e-08
2.02573e-08
2.02573e-08
2.03316e-08
1.89512e-08
1.8951e-08
1.8951e-08
1.90252e-08
1.76448e-08
1.76446e-08
1.76446e-08
1.77189e-08
1.63384e-08
1.63382e-08
1.63383e-08
1.64125e-08
1.5032e-08
1.50318e-08
1.50319e-08
1.51062e-08
1.37257e-08
1.37255e-08
1.37255e-08
1.37997e-08
1.24193e-08
1.24191e-08
1.24191e-08
1.24933e-08
1.11129e-08
1.11127e-08
1.11127e-08
1.11869e-08
9.80644e-09
9.80625e-09
9.80624e-09
9.8805e-09
8.5e-09
8.4998e-09
8.49979e-09
8.57404e-09
7.19354e-09
7.19337e-09
7.19339e-09
7.26762e-09
5.88716e-09
5.88697e-09
5.88697e-09
5.96121e-09
4.58079e-09
4.58063e-09
4.58063e-09
4.65474e-09
3.2745e-09
3.27433e-09
3.27434e-09
3.34823e-09
1.96944e-09
1.96775e-09
1.96776e-09
2.04235e-09
6.61001e-10
6.86528e-10
6.86535e-10
7.33731e-10
1.28456e-07
1.28675e-07
1.28675e-07
1.28456e-07
1.28675e-07
1.28675e-07
1.2862e-07
1.28621e-07
1.28621e-07
1.28621e-07
1.28675e-07
1.28675e-07
1.28456e-07
1.28675e-07
1.28674e-07
1.28456e-07
1.27895e-07
1.25265e-07
1.27727e-07
1.27727e-07
1.25406e-07
1.25406e-07
1.27895e-07
1.25265e-07
1.27727e-07
1.27727e-07
1.25406e-07
1.25406e-07
1.27727e-07
1.25406e-07
1.25406e-07
1.27895e-07
1.25265e-07
1.27727e-07
1.25406e-07
1.25406e-07
1.25265e-07
1.24925e-07
1.23063e-07
1.24793e-07
1.24793e-07
1.23174e-07
1.23174e-07
1.24925e-07
1.23063e-07
1.24793e-07
1.24793e-07
1.23174e-07
1.23174e-07
1.24793e-07
1.23174e-07
1.23174e-07
1.24925e-07
1.23063e-07
1.24793e-07
1.23174e-07
1.23174e-07
1.23063e-07
1.22792e-07
1.212e-07
1.22682e-07
1.22682e-07
1.21302e-07
1.21302e-07
1.22792e-07
1.212e-07
1.22682e-07
1.22682e-07
1.21302e-07
1.21302e-07
1.22682e-07
1.21302e-07
1.21302e-07
1.22792e-07
1.212e-07
1.22682e-07
1.21302e-07
1.21302e-07
1.212e-07
1.20963e-07
1.19521e-07
1.20867e-07
1.20867e-07
1.19616e-07
1.19616e-07
1.20963e-07
1.19521e-07
1.20867e-07
1.20867e-07
1.19616e-07
1.19616e-07
1.20867e-07
1.19616e-07
1.19616e-07
1.20963e-07
1.19521e-07
1.20867e-07
1.19616e-07
1.19616e-07
1.19521e-07
1.19303e-07
1.1795e-07
1.19213e-07
1.19213e-07
1.1804e-07
1.1804e-07
1.19303e-07
1.1795e-07
1.19213e-07
1.19213e-07
1.1804e-07
1.1804e-07
1.19213e-07
1.1804e-07
1.1804e-07
1.19303e-07
1.1795e-07
1.19213e-07
1.1804e-07
1.1804e-07
1.1795e-07
1.17743e-07
1.1645e-07
1.17658e-07
1.17658e-07
1.16536e-07
1.16536e-07
1.17743e-07
1.1645e-07
1.17658e-07
1.17658e-07
1.16536e-07
1.16536e-07
1.17658e-07
1.16536e-07
1.16536e-07
1.17743e-07
1.1645e-07
1.17658e-07
1.16536e-07
1.16536e-07
1.1645e-07
1.16251e-07
1.14999e-07
1.16169e-07
1.16169e-07
1.15082e-07
1.15082e-07
1.16251e-07
1.14999e-07
1.16169e-07
1.16169e-07
1.15082e-07
1.15082e-07
1.16169e-07
1.15082e-07
1.15082e-07
1.16251e-07
1.14999e-07
1.16169e-07
1.15082e-07
1.15082e-07
1.14999e-07
1.14805e-07
1.13584e-07
1.14725e-07
1.14725e-07
1.13665e-07
1.13665e-07
1.14805e-07
1.13584e-07
1.14725e-07
1.14725e-07
1.13665e-07
1.13665e-07
1.14725e-07
1.13665e-07
1.13665e-07
1.14805e-07
1.13584e-07
1.14725e-07
1.13665e-07
1.13665e-07
1.13584e-07
1.13394e-07
1.12195e-07
1.13315e-07
1.13315e-07
1.12274e-07
1.12274e-07
1.13394e-07
1.12195e-07
1.13315e-07
1.13315e-07
1.12274e-07
1.12274e-07
1.13315e-07
1.12274e-07
1.12274e-07
1.13394e-07
1.12195e-07
1.13315e-07
1.12274e-07
1.12274e-07
1.12195e-07
1.12008e-07
1.10826e-07
1.1193e-07
1.1193e-07
1.10904e-07
1.10904e-07
1.12008e-07
1.10826e-07
1.1193e-07
1.1193e-07
1.10904e-07
1.10904e-07
1.1193e-07
1.10904e-07
1.10904e-07
1.12008e-07
1.10826e-07
1.1193e-07
1.10904e-07
1.10904e-07
1.10826e-07
1.10641e-07
1.09472e-07
1.10564e-07
1.10564e-07
1.09549e-07
1.09549e-07
1.10641e-07
1.09472e-07
1.10564e-07
1.10564e-07
1.09549e-07
1.09549e-07
1.10564e-07
1.09549e-07
1.09549e-07
1.10641e-07
1.09472e-07
1.10564e-07
1.09549e-07
1.09549e-07
1.09472e-07
1.09289e-07
1.0813e-07
1.09213e-07
1.09213e-07
1.08206e-07
1.08206e-07
1.09289e-07
1.0813e-07
1.09213e-07
1.09213e-07
1.08206e-07
1.08206e-07
1.09213e-07
1.08206e-07
1.08206e-07
1.09289e-07
1.0813e-07
1.09213e-07
1.08206e-07
1.08206e-07
1.0813e-07
1.07948e-07
1.06796e-07
1.07872e-07
1.07872e-07
1.06872e-07
1.06872e-07
1.07948e-07
1.06796e-07
1.07872e-07
1.07872e-07
1.06872e-07
1.06872e-07
1.07872e-07
1.06872e-07
1.06872e-07
1.07948e-07
1.06796e-07
1.07872e-07
1.06872e-07
1.06872e-07
1.06796e-07
1.06615e-07
1.0547e-07
1.0654e-07
1.0654e-07
1.05545e-07
1.05545e-07
1.06615e-07
1.0547e-07
1.0654e-07
1.0654e-07
1.05545e-07
1.05545e-07
1.0654e-07
1.05545e-07
1.05545e-07
1.06615e-07
1.0547e-07
1.0654e-07
1.05545e-07
1.05545e-07
1.0547e-07
1.05289e-07
1.04149e-07
1.05214e-07
1.05214e-07
1.04224e-07
1.04224e-07
1.05289e-07
1.04148e-07
1.05214e-07
1.05214e-07
1.04224e-07
1.04224e-07
1.05214e-07
1.04224e-07
1.04224e-07
1.05289e-07
1.04148e-07
1.05214e-07
1.04224e-07
1.04224e-07
1.04149e-07
1.03969e-07
1.02832e-07
1.03894e-07
1.03894e-07
1.02907e-07
1.02907e-07
1.03969e-07
1.02832e-07
1.03894e-07
1.03894e-07
1.02907e-07
1.02907e-07
1.03894e-07
1.02907e-07
1.02907e-07
1.03969e-07
1.02832e-07
1.03894e-07
1.02907e-07
1.02907e-07
1.02832e-07
1.02653e-07
1.0152e-07
1.02578e-07
1.02578e-07
1.01594e-07
1.01594e-07
1.02653e-07
1.0152e-07
1.02578e-07
1.02578e-07
1.01594e-07
1.01594e-07
1.02578e-07
1.01594e-07
1.01594e-07
1.02653e-07
1.0152e-07
1.02578e-07
1.01594e-07
1.01594e-07
1.0152e-07
1.01341e-07
1.0021e-07
1.01267e-07
1.01266e-07
1.00284e-07
1.00284e-07
1.01341e-07
1.0021e-07
1.01266e-07
1.01266e-07
1.00284e-07
1.00284e-07
1.01266e-07
1.00284e-07
1.00284e-07
1.01341e-07
1.0021e-07
1.01266e-07
1.00284e-07
1.00284e-07
1.0021e-07
1.00032e-07
9.89023e-08
9.99573e-08
9.99574e-08
9.89765e-08
9.89765e-08
1.00032e-07
9.89023e-08
9.99574e-08
9.99574e-08
9.89765e-08
9.89765e-08
9.99574e-08
9.89765e-08
9.89765e-08
1.00032e-07
9.89022e-08
9.99574e-08
9.89765e-08
9.89765e-08
9.89022e-08
9.8724e-08
9.75951e-08
9.86497e-08
9.86497e-08
9.76694e-08
9.76694e-08
9.8724e-08
9.75951e-08
9.86497e-08
9.86497e-08
9.76694e-08
9.76693e-08
9.86497e-08
9.76694e-08
9.76694e-08
9.8724e-08
9.75951e-08
9.86497e-08
9.76694e-08
9.76694e-08
9.75951e-08
9.74169e-08
9.62882e-08
9.73426e-08
9.73426e-08
9.63624e-08
9.63624e-08
9.74169e-08
9.62882e-08
9.73426e-08
9.73426e-08
9.63624e-08
9.63625e-08
9.73426e-08
9.63625e-08
9.63625e-08
9.74169e-08
9.62882e-08
9.73426e-08
9.63625e-08
9.63625e-08
9.62882e-08
9.611e-08
9.49813e-08
9.60357e-08
9.60357e-08
9.50556e-08
9.50555e-08
9.611e-08
9.49813e-08
9.60357e-08
9.60357e-08
9.50556e-08
9.50556e-08
9.60357e-08
9.50555e-08
9.50556e-08
9.611e-08
9.49813e-08
9.60358e-08
9.50556e-08
9.50556e-08
9.49813e-08
9.48031e-08
9.36743e-08
9.47288e-08
9.47288e-08
9.37486e-08
9.37486e-08
9.48031e-08
9.36744e-08
9.47288e-08
9.47288e-08
9.37486e-08
9.37486e-08
9.47288e-08
9.37486e-08
9.37486e-08
9.48031e-08
9.36744e-08
9.47288e-08
9.37486e-08
9.37486e-08
9.36744e-08
9.34961e-08
9.23674e-08
9.34218e-08
9.34219e-08
9.24416e-08
9.24416e-08
9.34962e-08
9.23674e-08
9.34219e-08
9.34219e-08
9.24416e-08
9.24416e-08
9.34219e-08
9.24416e-08
9.24416e-08
9.34962e-08
9.23674e-08
9.34219e-08
9.24416e-08
9.24417e-08
9.23674e-08
9.21892e-08
9.10603e-08
9.21149e-08
9.21149e-08
9.11346e-08
9.11346e-08
9.21891e-08
9.10604e-08
9.21149e-08
9.21149e-08
9.11346e-08
9.11346e-08
9.21149e-08
9.11346e-08
9.11346e-08
9.21891e-08
9.10604e-08
9.21149e-08
9.11346e-08
9.11346e-08
9.10603e-08
9.08821e-08
8.97534e-08
9.08079e-08
9.08079e-08
8.98276e-08
8.98276e-08
9.08822e-08
8.97533e-08
9.08078e-08
9.08079e-08
8.98276e-08
8.98276e-08
9.08078e-08
8.98276e-08
8.98276e-08
9.08821e-08
8.97533e-08
9.08078e-08
8.98276e-08
8.98276e-08
8.97534e-08
8.95752e-08
8.84464e-08
8.95009e-08
8.95009e-08
8.85206e-08
8.85206e-08
8.95751e-08
8.84463e-08
8.95009e-08
8.95008e-08
8.85206e-08
8.85206e-08
8.95008e-08
8.85206e-08
8.85206e-08
8.95751e-08
8.84464e-08
8.95009e-08
8.85206e-08
8.85206e-08
8.84464e-08
8.82681e-08
8.71395e-08
8.81939e-08
8.81939e-08
8.72137e-08
8.72137e-08
8.82681e-08
8.71394e-08
8.81939e-08
8.81939e-08
8.72137e-08
8.72137e-08
8.81939e-08
8.72137e-08
8.72137e-08
8.82682e-08
8.71394e-08
8.81939e-08
8.72136e-08
8.72137e-08
8.71394e-08
8.69612e-08
8.58326e-08
8.6887e-08
8.68869e-08
8.59068e-08
8.59068e-08
8.69612e-08
8.58326e-08
8.6887e-08
8.6887e-08
8.59068e-08
8.59068e-08
8.68869e-08
8.59068e-08
8.59068e-08
8.69612e-08
8.58326e-08
8.6887e-08
8.59069e-08
8.59068e-08
8.58326e-08
8.56544e-08
8.45259e-08
8.55801e-08
8.55801e-08
8.46001e-08
8.46001e-08
8.56544e-08
8.45259e-08
8.55801e-08
8.55801e-08
8.46001e-08
8.46001e-08
8.55801e-08
8.46001e-08
8.46001e-08
8.56544e-08
8.45258e-08
8.55801e-08
8.46001e-08
8.46001e-08
8.45258e-08
8.43477e-08
8.32192e-08
8.42734e-08
8.42734e-08
8.32934e-08
8.32934e-08
8.43477e-08
8.32192e-08
8.42734e-08
8.42734e-08
8.32934e-08
8.32934e-08
8.42734e-08
8.32934e-08
8.32934e-08
8.43477e-08
8.32192e-08
8.42734e-08
8.32934e-08
8.32934e-08
8.32192e-08
8.3041e-08
8.19125e-08
8.29667e-08
8.29668e-08
8.19867e-08
8.19868e-08
8.3041e-08
8.19125e-08
8.29668e-08
8.29667e-08
8.19867e-08
8.19868e-08
8.29668e-08
8.19868e-08
8.19868e-08
8.3041e-08
8.19125e-08
8.29668e-08
8.19868e-08
8.19868e-08
8.19125e-08
8.17344e-08
8.06059e-08
8.16601e-08
8.16601e-08
8.06801e-08
8.06801e-08
8.17343e-08
8.06059e-08
8.16601e-08
8.16601e-08
8.06801e-08
8.06801e-08
8.16601e-08
8.06801e-08
8.06802e-08
8.17344e-08
8.06059e-08
8.16601e-08
8.06801e-08
8.06801e-08
8.06059e-08
8.04277e-08
7.92993e-08
8.03535e-08
8.03535e-08
7.93735e-08
7.93736e-08
8.04278e-08
7.92993e-08
8.03535e-08
8.03535e-08
7.93735e-08
7.93735e-08
8.03535e-08
7.93735e-08
7.93736e-08
8.04277e-08
7.92993e-08
8.03535e-08
7.93736e-08
7.93735e-08
7.92993e-08
7.91211e-08
7.79927e-08
7.90469e-08
7.90469e-08
7.80669e-08
7.8067e-08
7.91212e-08
7.79927e-08
7.90469e-08
7.90469e-08
7.80669e-08
7.80669e-08
7.90469e-08
7.8067e-08
7.8067e-08
7.91212e-08
7.79927e-08
7.90469e-08
7.80669e-08
7.80669e-08
7.79927e-08
7.78146e-08
7.66862e-08
7.77403e-08
7.77403e-08
7.67604e-08
7.67604e-08
7.78146e-08
7.66862e-08
7.77403e-08
7.77403e-08
7.67604e-08
7.67604e-08
7.77403e-08
7.67604e-08
7.67604e-08
7.78146e-08
7.66862e-08
7.77403e-08
7.67604e-08
7.67604e-08
7.66862e-08
7.65081e-08
7.53797e-08
7.64338e-08
7.64338e-08
7.5454e-08
7.54539e-08
7.65081e-08
7.53797e-08
7.64338e-08
7.64338e-08
7.54539e-08
7.54539e-08
7.64338e-08
7.54539e-08
7.54539e-08
7.65081e-08
7.53797e-08
7.64338e-08
7.54539e-08
7.54539e-08
7.53797e-08
7.52016e-08
7.40732e-08
7.51273e-08
7.51273e-08
7.41475e-08
7.41474e-08
7.52016e-08
7.40732e-08
7.51273e-08
7.51273e-08
7.41474e-08
7.41474e-08
7.51273e-08
7.41475e-08
7.41474e-08
7.52016e-08
7.40732e-08
7.51273e-08
7.41474e-08
7.41475e-08
7.40732e-08
7.3895e-08
7.27667e-08
7.38208e-08
7.38208e-08
7.28409e-08
7.28409e-08
7.38951e-08
7.27667e-08
7.38208e-08
7.38208e-08
7.28409e-08
7.2841e-08
7.38208e-08
7.2841e-08
7.28409e-08
7.38951e-08
7.27667e-08
7.38208e-08
7.2841e-08
7.2841e-08
7.27667e-08
7.25886e-08
7.14602e-08
7.25143e-08
7.25143e-08
7.15345e-08
7.15345e-08
7.25886e-08
7.14602e-08
7.25143e-08
7.25143e-08
7.15345e-08
7.15344e-08
7.25143e-08
7.15345e-08
7.15345e-08
7.25886e-08
7.14602e-08
7.25143e-08
7.15345e-08
7.15345e-08
7.14602e-08
7.12821e-08
7.01538e-08
7.12078e-08
7.12078e-08
7.0228e-08
7.0228e-08
7.12821e-08
7.01538e-08
7.12079e-08
7.12078e-08
7.0228e-08
7.0228e-08
7.12078e-08
7.0228e-08
7.0228e-08
7.12821e-08
7.01537e-08
7.12078e-08
7.0228e-08
7.0228e-08
7.01538e-08
6.99756e-08
6.88473e-08
6.99014e-08
6.99014e-08
6.89215e-08
6.89215e-08
6.99756e-08
6.88473e-08
6.99014e-08
6.99013e-08
6.89215e-08
6.89215e-08
6.99014e-08
6.89215e-08
6.89215e-08
6.99756e-08
6.88473e-08
6.99014e-08
6.89215e-08
6.89215e-08
6.88472e-08
6.86691e-08
6.75408e-08
6.85949e-08
6.85949e-08
6.7615e-08
6.7615e-08
6.86691e-08
6.75408e-08
6.85949e-08
6.85949e-08
6.7615e-08
6.7615e-08
6.85949e-08
6.7615e-08
6.7615e-08
6.86692e-08
6.75408e-08
6.85949e-08
6.7615e-08
6.7615e-08
6.75408e-08
6.73626e-08
6.62343e-08
6.72884e-08
6.72884e-08
6.63085e-08
6.63086e-08
6.73626e-08
6.62343e-08
6.72884e-08
6.72884e-08
6.63086e-08
6.63085e-08
6.72884e-08
6.63085e-08
6.63085e-08
6.73626e-08
6.62343e-08
6.72884e-08
6.63085e-08
6.63085e-08
6.62343e-08
6.60562e-08
6.49278e-08
6.59819e-08
6.59819e-08
6.5002e-08
6.5002e-08
6.60562e-08
6.49278e-08
6.59819e-08
6.59819e-08
6.5002e-08
6.50021e-08
6.59819e-08
6.50021e-08
6.50021e-08
6.60562e-08
6.49278e-08
6.59819e-08
6.50021e-08
6.50021e-08
6.49279e-08
6.47497e-08
6.36213e-08
6.46754e-08
6.46754e-08
6.36956e-08
6.36956e-08
6.47496e-08
6.36214e-08
6.46754e-08
6.46754e-08
6.36956e-08
6.36956e-08
6.46754e-08
6.36956e-08
6.36956e-08
6.47497e-08
6.36214e-08
6.46755e-08
6.36956e-08
6.36956e-08
6.36214e-08
6.34432e-08
6.23149e-08
6.3369e-08
6.3369e-08
6.23891e-08
6.23891e-08
6.34432e-08
6.23149e-08
6.3369e-08
6.33689e-08
6.23891e-08
6.23891e-08
6.3369e-08
6.23891e-08
6.23891e-08
6.34432e-08
6.23149e-08
6.3369e-08
6.23891e-08
6.23891e-08
6.23149e-08
6.21368e-08
6.10085e-08
6.20625e-08
6.20625e-08
6.10827e-08
6.10827e-08
6.21368e-08
6.10085e-08
6.20625e-08
6.20625e-08
6.10827e-08
6.10827e-08
6.20625e-08
6.10827e-08
6.10827e-08
6.21368e-08
6.10085e-08
6.20625e-08
6.10827e-08
6.10827e-08
6.10085e-08
6.08304e-08
5.97021e-08
6.07561e-08
6.07561e-08
5.97763e-08
5.97763e-08
6.08304e-08
5.97021e-08
6.07561e-08
6.07561e-08
5.97763e-08
5.97763e-08
6.07561e-08
5.97763e-08
5.97763e-08
6.08303e-08
5.97021e-08
6.07561e-08
5.97763e-08
5.97763e-08
5.97021e-08
5.9524e-08
5.83957e-08
5.94497e-08
5.94497e-08
5.847e-08
5.84699e-08
5.9524e-08
5.83957e-08
5.94497e-08
5.94497e-08
5.84699e-08
5.847e-08
5.94497e-08
5.84699e-08
5.847e-08
5.9524e-08
5.83958e-08
5.94497e-08
5.847e-08
5.847e-08
5.83957e-08
5.82176e-08
5.70893e-08
5.81434e-08
5.81433e-08
5.71636e-08
5.71636e-08
5.82176e-08
5.70894e-08
5.81434e-08
5.81434e-08
5.71636e-08
5.71636e-08
5.81434e-08
5.71636e-08
5.71636e-08
5.82176e-08
5.70894e-08
5.81434e-08
5.71636e-08
5.71636e-08
5.70894e-08
5.69112e-08
5.5783e-08
5.6837e-08
5.6837e-08
5.58572e-08
5.58572e-08
5.69113e-08
5.5783e-08
5.6837e-08
5.6837e-08
5.58572e-08
5.58572e-08
5.6837e-08
5.58572e-08
5.58572e-08
5.69113e-08
5.5783e-08
5.6837e-08
5.58572e-08
5.58572e-08
5.5783e-08
5.56049e-08
5.44766e-08
5.55306e-08
5.55307e-08
5.45508e-08
5.45508e-08
5.56049e-08
5.44766e-08
5.55307e-08
5.55306e-08
5.45508e-08
5.45509e-08
5.55306e-08
5.45508e-08
5.45508e-08
5.56049e-08
5.44766e-08
5.55306e-08
5.45509e-08
5.45508e-08
5.44766e-08
5.42985e-08
5.31702e-08
5.42242e-08
5.42242e-08
5.32445e-08
5.32444e-08
5.42985e-08
5.31702e-08
5.42242e-08
5.42243e-08
5.32444e-08
5.32444e-08
5.42242e-08
5.32445e-08
5.32444e-08
5.42985e-08
5.31702e-08
5.42242e-08
5.32444e-08
5.32445e-08
5.31702e-08
5.29921e-08
5.18638e-08
5.29178e-08
5.29178e-08
5.1938e-08
5.1938e-08
5.2992e-08
5.18638e-08
5.29178e-08
5.29178e-08
5.1938e-08
5.1938e-08
5.29178e-08
5.1938e-08
5.1938e-08
5.29921e-08
5.18638e-08
5.29179e-08
5.1938e-08
5.1938e-08
5.18638e-08
5.16857e-08
5.05573e-08
5.16114e-08
5.16114e-08
5.06316e-08
5.06316e-08
5.16856e-08
5.05574e-08
5.16114e-08
5.16114e-08
5.06316e-08
5.06316e-08
5.16114e-08
5.06316e-08
5.06316e-08
5.16857e-08
5.05574e-08
5.16114e-08
5.06316e-08
5.06316e-08
5.05573e-08
5.03792e-08
4.92509e-08
5.0305e-08
5.0305e-08
4.93251e-08
4.93252e-08
5.03792e-08
4.92509e-08
5.0305e-08
5.0305e-08
4.93252e-08
4.93251e-08
5.0305e-08
4.93251e-08
4.93252e-08
5.03793e-08
4.92509e-08
5.0305e-08
4.93252e-08
4.93251e-08
4.92509e-08
4.90728e-08
4.79444e-08
4.89985e-08
4.89985e-08
4.80187e-08
4.80186e-08
4.90728e-08
4.79444e-08
4.89985e-08
4.89985e-08
4.80186e-08
4.80187e-08
4.89985e-08
4.80187e-08
4.80187e-08
4.90728e-08
4.79444e-08
4.89985e-08
4.80186e-08
4.80186e-08
4.79444e-08
4.77663e-08
4.6638e-08
4.7692e-08
4.7692e-08
4.67122e-08
4.67122e-08
4.77663e-08
4.66379e-08
4.7692e-08
4.7692e-08
4.67122e-08
4.67122e-08
4.7692e-08
4.67122e-08
4.67122e-08
4.77663e-08
4.6638e-08
4.7692e-08
4.67122e-08
4.67122e-08
4.66379e-08
4.64598e-08
4.53315e-08
4.63855e-08
4.63856e-08
4.54057e-08
4.54057e-08
4.64598e-08
4.53315e-08
4.63856e-08
4.63855e-08
4.54057e-08
4.54057e-08
4.63856e-08
4.54057e-08
4.54057e-08
4.64598e-08
4.53315e-08
4.63856e-08
4.54057e-08
4.54057e-08
4.53315e-08
4.51533e-08
4.40251e-08
4.50791e-08
4.50791e-08
4.40993e-08
4.40993e-08
4.51533e-08
4.4025e-08
4.50791e-08
4.50791e-08
4.40993e-08
4.40993e-08
4.50791e-08
4.40993e-08
4.40993e-08
4.51534e-08
4.4025e-08
4.50791e-08
4.40993e-08
4.40993e-08
4.40251e-08
4.38469e-08
4.27186e-08
4.37727e-08
4.37727e-08
4.27928e-08
4.27929e-08
4.38469e-08
4.27187e-08
4.37727e-08
4.37727e-08
4.27929e-08
4.27929e-08
4.37727e-08
4.27929e-08
4.27929e-08
4.38469e-08
4.27187e-08
4.37727e-08
4.27929e-08
4.27929e-08
4.27186e-08
4.25405e-08
4.14123e-08
4.24662e-08
4.24663e-08
4.14865e-08
4.14864e-08
4.25405e-08
4.14122e-08
4.24662e-08
4.24663e-08
4.14864e-08
4.14865e-08
4.24662e-08
4.14864e-08
4.14864e-08
4.25405e-08
4.14122e-08
4.24662e-08
4.14864e-08
4.14864e-08
4.14122e-08
4.12341e-08
4.01058e-08
4.11599e-08
4.11598e-08
4.018e-08
4.018e-08
4.12341e-08
4.01058e-08
4.11598e-08
4.11598e-08
4.018e-08
4.018e-08
4.11598e-08
4.018e-08
4.018e-08
4.12341e-08
4.01058e-08
4.11598e-08
4.018e-08
4.018e-08
4.01058e-08
3.99277e-08
3.87994e-08
3.98534e-08
3.98534e-08
3.88736e-08
3.88736e-08
3.99277e-08
3.87994e-08
3.98534e-08
3.98534e-08
3.88736e-08
3.88736e-08
3.98534e-08
3.88736e-08
3.88736e-08
3.99277e-08
3.87994e-08
3.98534e-08
3.88736e-08
3.88736e-08
3.87994e-08
3.86213e-08
3.7493e-08
3.8547e-08
3.8547e-08
3.75672e-08
3.75673e-08
3.86213e-08
3.74931e-08
3.85471e-08
3.8547e-08
3.75673e-08
3.75673e-08
3.85471e-08
3.75673e-08
3.75673e-08
3.86213e-08
3.74931e-08
3.8547e-08
3.75673e-08
3.75673e-08
3.74931e-08
3.73149e-08
3.61867e-08
3.72407e-08
3.72407e-08
3.62609e-08
3.62609e-08
3.73149e-08
3.61867e-08
3.72407e-08
3.72407e-08
3.62609e-08
3.62609e-08
3.72407e-08
3.62609e-08
3.62609e-08
3.73149e-08
3.61867e-08
3.72407e-08
3.62609e-08
3.62609e-08
3.61867e-08
3.60086e-08
3.48803e-08
3.59343e-08
3.59343e-08
3.49545e-08
3.49545e-08
3.60085e-08
3.48803e-08
3.59343e-08
3.59343e-08
3.49546e-08
3.49545e-08
3.59343e-08
3.49545e-08
3.49545e-08
3.60085e-08
3.48803e-08
3.59343e-08
3.49545e-08
3.49545e-08
3.48803e-08
3.47022e-08
3.35739e-08
3.46279e-08
3.46279e-08
3.36481e-08
3.36482e-08
3.47022e-08
3.3574e-08
3.46279e-08
3.46279e-08
3.36482e-08
3.36482e-08
3.46279e-08
3.36482e-08
3.36482e-08
3.47022e-08
3.35739e-08
3.46279e-08
3.36482e-08
3.36481e-08
3.35739e-08
3.33958e-08
3.22676e-08
3.33215e-08
3.33216e-08
3.23418e-08
3.23418e-08
3.33958e-08
3.22676e-08
3.33216e-08
3.33216e-08
3.23418e-08
3.23418e-08
3.33216e-08
3.23418e-08
3.23418e-08
3.33958e-08
3.22676e-08
3.33216e-08
3.23418e-08
3.23418e-08
3.22676e-08
3.20894e-08
3.09612e-08
3.20152e-08
3.20152e-08
3.10354e-08
3.10354e-08
3.20894e-08
3.09612e-08
3.20152e-08
3.20152e-08
3.10354e-08
3.10354e-08
3.20152e-08
3.10354e-08
3.10354e-08
3.20894e-08
3.09612e-08
3.20152e-08
3.10354e-08
3.10354e-08
3.09612e-08
3.0783e-08
2.96548e-08
3.07088e-08
3.07088e-08
2.9729e-08
2.9729e-08
3.0783e-08
2.96548e-08
3.07088e-08
3.07088e-08
2.9729e-08
2.9729e-08
3.07088e-08
2.9729e-08
2.9729e-08
3.0783e-08
2.96548e-08
3.07088e-08
2.9729e-08
2.9729e-08
2.96548e-08
2.94767e-08
2.83484e-08
2.94024e-08
2.94024e-08
2.84226e-08
2.84226e-08
2.94766e-08
2.83484e-08
2.94024e-08
2.94024e-08
2.84226e-08
2.84226e-08
2.94024e-08
2.84226e-08
2.84226e-08
2.94767e-08
2.83484e-08
2.94024e-08
2.84226e-08
2.84226e-08
2.83484e-08
2.81703e-08
2.70419e-08
2.8096e-08
2.8096e-08
2.71162e-08
2.71161e-08
2.81702e-08
2.70419e-08
2.8096e-08
2.8096e-08
2.71162e-08
2.71161e-08
2.8096e-08
2.71161e-08
2.71161e-08
2.81702e-08
2.70419e-08
2.8096e-08
2.71161e-08
2.71161e-08
2.70419e-08
2.68638e-08
2.57355e-08
2.67895e-08
2.67895e-08
2.58097e-08
2.58097e-08
2.68638e-08
2.57355e-08
2.67895e-08
2.67895e-08
2.58097e-08
2.58097e-08
2.67895e-08
2.58097e-08
2.58097e-08
2.68638e-08
2.57355e-08
2.67895e-08
2.58097e-08
2.58097e-08
2.57355e-08
2.55573e-08
2.4429e-08
2.54831e-08
2.54831e-08
2.45033e-08
2.45032e-08
2.55573e-08
2.4429e-08
2.54831e-08
2.54831e-08
2.45032e-08
2.45032e-08
2.54831e-08
2.45033e-08
2.45032e-08
2.55573e-08
2.4429e-08
2.54831e-08
2.45032e-08
2.45032e-08
2.4429e-08
2.42509e-08
2.31226e-08
2.41766e-08
2.41766e-08
2.31968e-08
2.31968e-08
2.42509e-08
2.31226e-08
2.41766e-08
2.41766e-08
2.31968e-08
2.31968e-08
2.41766e-08
2.31968e-08
2.31968e-08
2.42509e-08
2.31226e-08
2.41766e-08
2.31968e-08
2.31968e-08
2.31226e-08
2.29445e-08
2.18162e-08
2.28702e-08
2.28702e-08
2.18904e-08
2.18904e-08
2.29445e-08
2.18162e-08
2.28702e-08
2.28702e-08
2.18904e-08
2.18904e-08
2.28702e-08
2.18904e-08
2.18904e-08
2.29445e-08
2.18161e-08
2.28702e-08
2.18904e-08
2.18903e-08
2.18161e-08
2.1638e-08
2.05097e-08
2.15638e-08
2.15638e-08
2.05839e-08
2.05839e-08
2.1638e-08
2.05097e-08
2.15638e-08
2.15638e-08
2.05839e-08
2.05839e-08
2.15637e-08
2.05839e-08
2.05839e-08
2.1638e-08
2.05097e-08
2.15637e-08
2.05839e-08
2.05839e-08
2.05097e-08
2.03316e-08
1.92034e-08
2.02573e-08
2.02573e-08
1.92776e-08
1.92775e-08
2.03316e-08
1.92033e-08
2.02573e-08
2.02573e-08
1.92776e-08
1.92776e-08
2.02573e-08
1.92776e-08
1.92776e-08
2.03316e-08
1.92034e-08
2.02573e-08
1.92776e-08
1.92776e-08
1.92033e-08
1.90252e-08
1.7897e-08
1.8951e-08
1.8951e-08
1.79712e-08
1.79712e-08
1.90252e-08
1.7897e-08
1.8951e-08
1.8951e-08
1.79712e-08
1.79712e-08
1.8951e-08
1.79712e-08
1.79712e-08
1.90252e-08
1.7897e-08
1.8951e-08
1.79712e-08
1.79712e-08
1.7897e-08
1.77189e-08
1.65907e-08
1.76446e-08
1.76446e-08
1.66649e-08
1.66648e-08
1.77189e-08
1.65906e-08
1.76446e-08
1.76446e-08
1.66649e-08
1.66649e-08
1.76446e-08
1.66648e-08
1.66648e-08
1.77189e-08
1.65906e-08
1.76446e-08
1.66649e-08
1.66648e-08
1.65906e-08
1.64125e-08
1.52842e-08
1.63382e-08
1.63382e-08
1.53584e-08
1.53584e-08
1.64125e-08
1.52842e-08
1.63383e-08
1.63382e-08
1.53584e-08
1.53585e-08
1.63383e-08
1.53584e-08
1.53585e-08
1.64125e-08
1.52843e-08
1.63382e-08
1.53585e-08
1.53585e-08
1.52843e-08
1.51061e-08
1.39779e-08
1.50318e-08
1.50318e-08
1.40521e-08
1.40521e-08
1.51061e-08
1.39779e-08
1.50318e-08
1.50319e-08
1.40521e-08
1.40521e-08
1.50319e-08
1.40521e-08
1.40521e-08
1.51061e-08
1.39778e-08
1.50319e-08
1.40521e-08
1.40521e-08
1.39779e-08
1.37997e-08
1.26715e-08
1.37255e-08
1.37255e-08
1.27457e-08
1.27457e-08
1.37997e-08
1.26715e-08
1.37255e-08
1.37255e-08
1.27457e-08
1.27457e-08
1.37255e-08
1.27457e-08
1.27457e-08
1.37997e-08
1.26715e-08
1.37255e-08
1.27457e-08
1.27457e-08
1.26715e-08
1.24933e-08
1.13651e-08
1.24191e-08
1.24191e-08
1.14393e-08
1.14393e-08
1.24934e-08
1.13651e-08
1.24191e-08
1.24191e-08
1.14393e-08
1.14393e-08
1.24191e-08
1.14393e-08
1.14393e-08
1.24933e-08
1.13651e-08
1.24191e-08
1.14393e-08
1.14393e-08
1.13651e-08
1.11869e-08
1.00587e-08
1.11127e-08
1.11127e-08
1.01329e-08
1.01329e-08
1.1187e-08
1.00587e-08
1.11127e-08
1.11127e-08
1.01329e-08
1.01329e-08
1.11127e-08
1.01329e-08
1.01328e-08
1.1187e-08
1.00586e-08
1.11127e-08
1.01328e-08
1.01328e-08
1.00586e-08
9.88052e-09
8.75223e-09
9.80626e-09
9.80626e-09
8.82643e-09
8.82641e-09
9.88051e-09
8.7522e-09
9.80624e-09
9.80625e-09
8.82642e-09
8.8264e-09
9.80624e-09
8.8264e-09
8.82639e-09
9.88049e-09
8.75217e-09
9.80624e-09
8.82639e-09
8.8264e-09
8.75217e-09
8.57406e-09
7.44572e-09
8.49982e-09
8.4998e-09
7.51995e-09
7.51995e-09
8.57406e-09
7.44574e-09
8.49982e-09
8.49979e-09
7.51996e-09
7.51997e-09
8.49979e-09
7.51996e-09
7.51995e-09
8.57404e-09
7.44576e-09
8.49979e-09
7.51998e-09
7.51996e-09
7.44574e-09
7.26759e-09
6.1393e-09
7.19336e-09
7.19336e-09
6.21352e-09
6.21351e-09
7.26759e-09
6.13929e-09
7.19337e-09
7.19337e-09
6.21352e-09
6.21352e-09
7.19336e-09
6.21353e-09
6.21353e-09
7.26762e-09
6.13931e-09
7.19338e-09
6.21352e-09
6.21354e-09
6.13933e-09
5.96117e-09
4.83285e-09
5.88696e-09
5.88696e-09
4.90708e-09
4.9071e-09
5.96115e-09
4.83288e-09
5.88696e-09
5.88697e-09
4.90708e-09
4.90709e-09
5.88699e-09
4.90709e-09
4.90711e-09
5.96118e-09
4.83287e-09
5.88699e-09
4.90709e-09
4.90709e-09
4.83284e-09
4.65474e-09
3.52631e-09
4.58061e-09
4.58063e-09
3.60055e-09
3.60055e-09
4.65476e-09
3.52631e-09
4.58062e-09
4.58063e-09
3.60056e-09
3.60056e-09
4.58063e-09
3.60055e-09
3.60055e-09
4.65475e-09
3.52631e-09
4.58062e-09
3.60056e-09
3.60055e-09
3.52629e-09
3.34822e-09
2.21964e-09
3.27433e-09
3.27433e-09
2.29332e-09
2.29331e-09
3.3482e-09
2.21964e-09
3.27433e-09
3.27434e-09
2.29332e-09
2.29334e-09
3.27433e-09
2.29332e-09
2.29332e-09
3.34822e-09
2.21967e-09
3.27433e-09
2.29333e-09
2.29332e-09
2.21966e-09
2.04233e-09
9.14455e-10
1.96776e-09
1.96774e-09
9.99176e-10
9.99185e-10
2.04231e-09
9.14459e-10
1.96774e-09
1.96778e-09
9.99269e-10
9.99233e-10
1.96776e-09
9.99246e-10
9.9917e-10
2.04235e-09
9.14482e-10
1.96775e-09
9.99249e-10
9.99291e-10
9.14464e-10
7.3373e-10
6.8645e-10
6.86474e-10
7.33725e-10
6.8657e-10
6.86513e-10
6.60991e-10
6.61031e-10
6.61019e-10
6.86447e-10
7.33745e-10
6.86588e-10
1.29138e-07
1.29759e-07
1.29425e-07
1.29425e-07
1.31173e-07
1.30019e-07
1.32557e-07
1.29648e-07
1.31173e-07
1.30019e-07
1.29648e-07
1.32557e-07
1.30312e-07
1.33026e-07
1.33026e-07
1.26479e-07
1.27655e-07
1.27746e-07
1.26436e-07
1.27637e-07
1.26421e-07
1.26479e-07
1.27655e-07
1.27746e-07
1.26436e-07
1.27793e-07
1.27793e-07
1.27793e-07
1.25501e-07
1.25501e-07
1.25501e-07
1.25501e-07
1.2654e-07
1.27756e-07
1.2777e-07
1.26857e-07
1.27826e-07
1.26486e-07
1.26912e-07
1.27637e-07
1.26421e-07
1.2654e-07
1.27769e-07
1.27756e-07
1.26857e-07
1.27826e-07
1.26912e-07
1.26486e-07
1.27729e-07
1.27729e-07
1.26657e-07
1.26465e-07
1.26465e-07
1.24044e-07
1.24851e-07
1.24872e-07
1.24029e-07
1.24845e-07
1.24025e-07
1.24044e-07
1.24851e-07
1.24872e-07
1.24029e-07
1.2487e-07
1.2487e-07
1.2487e-07
1.23208e-07
1.23208e-07
1.23208e-07