/*--------------------------------*- C++ -*----------------------------------*\
| =========                 |                                                 |
| \\      /  F ield         | OpenFOAM: The Open Source CFD Toolbox           |
|  \\    /   O peration     | Version:  v2012                                 |
|   \\  /    A nd           | Website:  www.openfoam.com                      |
|    \\/     M anipulation  |                                                 |
\*---------------------------------------------------------------------------*/
FoamFile
{
    version     2.0;
    format      ascii;
    class       volScalarField;
    location    "25000";
    object      p;
}
// * * * * * * * * * * * * * * * * * * * * * * * * * * * * * * * * * * * * * //

dimensions      [0 2 -2 0 0 0 0];


internalField   nonuniform List<scalar> 
169728
(
1.31628e-07
1.31562e-07
1.31562e-07
1.3173e-07
1.28704e-07
1.28628e-07
1.28628e-07
1.2876e-07
1.26542e-07
1.26517e-07
1.26517e-07
1.26627e-07
1.2471e-07
1.24702e-07
1.24702e-07
1.24798e-07
1.23049e-07
1.23049e-07
1.23049e-07
1.23139e-07
1.21492e-07
1.21494e-07
1.21494e-07
1.21579e-07
1.20004e-07
1.20007e-07
1.20007e-07
1.20089e-07
1.18578e-07
1.18579e-07
1.18579e-07
1.18659e-07
1.17197e-07
1.17197e-07
1.17197e-07
1.17275e-07
1.15836e-07
1.15836e-07
1.15836e-07
1.15913e-07
1.1448e-07
1.1448e-07
1.1448e-07
1.14557e-07
1.13125e-07
1.13125e-07
1.13125e-07
1.13202e-07
1.1177e-07
1.1177e-07
1.1177e-07
1.11847e-07
1.10415e-07
1.10415e-07
1.10415e-07
1.10492e-07
1.0906e-07
1.0906e-07
1.0906e-07
1.09137e-07
1.07705e-07
1.07705e-07
1.07705e-07
1.07782e-07
1.0635e-07
1.0635e-07
1.0635e-07
1.06427e-07
1.04996e-07
1.04995e-07
1.04995e-07
1.05073e-07
1.03641e-07
1.03641e-07
1.03641e-07
1.03718e-07
1.02286e-07
1.02286e-07
1.02286e-07
1.02363e-07
1.00932e-07
1.00932e-07
1.00932e-07
1.01009e-07
9.95773e-08
9.95772e-08
9.95771e-08
9.96543e-08
9.82228e-08
9.82226e-08
9.82226e-08
9.82997e-08
9.68682e-08
9.6868e-08
9.6868e-08
9.69452e-08
9.55136e-08
9.55134e-08
9.55134e-08
9.55906e-08
9.41591e-08
9.41589e-08
9.41589e-08
9.4236e-08
9.28045e-08
9.28044e-08
9.28044e-08
9.28815e-08
9.145e-08
9.14498e-08
9.14498e-08
9.15269e-08
9.00954e-08
9.00952e-08
9.00952e-08
9.01723e-08
8.87407e-08
8.87405e-08
8.87406e-08
8.88176e-08
8.7386e-08
8.73859e-08
8.73858e-08
8.74629e-08
8.60314e-08
8.60312e-08
8.60312e-08
8.61083e-08
8.46767e-08
8.46766e-08
8.46765e-08
8.47537e-08
8.33221e-08
8.33219e-08
8.33219e-08
8.33991e-08
8.19675e-08
8.19673e-08
8.19673e-08
8.20444e-08
8.06129e-08
8.06127e-08
8.06127e-08
8.06898e-08
7.92583e-08
7.92581e-08
7.92581e-08
7.93352e-08
7.79037e-08
7.79035e-08
7.79035e-08
7.79806e-08
7.65491e-08
7.65489e-08
7.65489e-08
7.6626e-08
7.51944e-08
7.51942e-08
7.51943e-08
7.52714e-08
7.38397e-08
7.38396e-08
7.38396e-08
7.39167e-08
7.24851e-08
7.24849e-08
7.24849e-08
7.2562e-08
7.11305e-08
7.11303e-08
7.11303e-08
7.12074e-08
6.97759e-08
6.97757e-08
6.97757e-08
6.98528e-08
6.84213e-08
6.84212e-08
6.84212e-08
6.84983e-08
6.70668e-08
6.70666e-08
6.70665e-08
6.71437e-08
6.57122e-08
6.5712e-08
6.5712e-08
6.57891e-08
6.43576e-08
6.43574e-08
6.43574e-08
6.44345e-08
6.3003e-08
6.30028e-08
6.30028e-08
6.30799e-08
6.16483e-08
6.16481e-08
6.16481e-08
6.17253e-08
6.02936e-08
6.02934e-08
6.02934e-08
6.03705e-08
5.89387e-08
5.89386e-08
5.89386e-08
5.90157e-08
5.7584e-08
5.75838e-08
5.75839e-08
5.7661e-08
5.62293e-08
5.62291e-08
5.62291e-08
5.63062e-08
5.48746e-08
5.48744e-08
5.48744e-08
5.49515e-08
5.35199e-08
5.35197e-08
5.35197e-08
5.35968e-08
5.21652e-08
5.21651e-08
5.21651e-08
5.22422e-08
5.08106e-08
5.08104e-08
5.08105e-08
5.08876e-08
4.9456e-08
4.94558e-08
4.94558e-08
4.95329e-08
4.81014e-08
4.81012e-08
4.81012e-08
4.81783e-08
4.67467e-08
4.67466e-08
4.67465e-08
4.68236e-08
4.53921e-08
4.53919e-08
4.53919e-08
4.5469e-08
4.40375e-08
4.40373e-08
4.40373e-08
4.41144e-08
4.26829e-08
4.26827e-08
4.26827e-08
4.27598e-08
4.13283e-08
4.13281e-08
4.13281e-08
4.14052e-08
3.99738e-08
3.99736e-08
3.99737e-08
4.00508e-08
3.86194e-08
3.86192e-08
3.86192e-08
3.86963e-08
3.72649e-08
3.72647e-08
3.72647e-08
3.73418e-08
3.59104e-08
3.59103e-08
3.59102e-08
3.59873e-08
3.45559e-08
3.45557e-08
3.45557e-08
3.46328e-08
3.32014e-08
3.32012e-08
3.32012e-08
3.32783e-08
3.18468e-08
3.18466e-08
3.18466e-08
3.19238e-08
3.04923e-08
3.04921e-08
3.04921e-08
3.05692e-08
2.91378e-08
2.91376e-08
2.91376e-08
2.92147e-08
2.77832e-08
2.7783e-08
2.7783e-08
2.78602e-08
2.64286e-08
2.64285e-08
2.64285e-08
2.65056e-08
2.50741e-08
2.50739e-08
2.50739e-08
2.51511e-08
2.37195e-08
2.37194e-08
2.37194e-08
2.37964e-08
2.2365e-08
2.23648e-08
2.23648e-08
2.24419e-08
2.10104e-08
2.10102e-08
2.10101e-08
2.10873e-08
1.96557e-08
1.96555e-08
1.96555e-08
1.97326e-08
1.8301e-08
1.83008e-08
1.83008e-08
1.83779e-08
1.69463e-08
1.69461e-08
1.69461e-08
1.70232e-08
1.55916e-08
1.55914e-08
1.55914e-08
1.56685e-08
1.4237e-08
1.42368e-08
1.42368e-08
1.43139e-08
1.28824e-08
1.28822e-08
1.28822e-08
1.29593e-08
1.15277e-08
1.15275e-08
1.15276e-08
1.16047e-08
1.01731e-08
1.01729e-08
1.01729e-08
1.02501e-08
8.81859e-09
8.81838e-09
8.81838e-09
8.8955e-09
7.46404e-09
7.46386e-09
7.46386e-09
7.54096e-09
6.10954e-09
6.10934e-09
6.10933e-09
6.18644e-09
4.75505e-09
4.75488e-09
4.75486e-09
4.83186e-09
3.40068e-09
3.4005e-09
3.40052e-09
3.4773e-09
2.04753e-09
2.0459e-09
2.0459e-09
2.12337e-09
6.88214e-10
7.1732e-10
7.17297e-10
7.67396e-10
1.3229e-07
1.32509e-07
1.32509e-07
1.3229e-07
1.32509e-07
1.32509e-07
1.32455e-07
1.32455e-07
1.32455e-07
1.32455e-07
1.32509e-07
1.32509e-07
1.3229e-07
1.32509e-07
1.32509e-07
1.3229e-07
1.3173e-07
1.29099e-07
1.31562e-07
1.31562e-07
1.29241e-07
1.29241e-07
1.3173e-07
1.29099e-07
1.31562e-07
1.31562e-07
1.2924e-07
1.29241e-07
1.31562e-07
1.29241e-07
1.29241e-07
1.3173e-07
1.29099e-07
1.31562e-07
1.29241e-07
1.29241e-07
1.29099e-07
1.2876e-07
1.26898e-07
1.28628e-07
1.28628e-07
1.27009e-07
1.27009e-07
1.2876e-07
1.26898e-07
1.28628e-07
1.28628e-07
1.27009e-07
1.27009e-07
1.28628e-07
1.27009e-07
1.27009e-07
1.2876e-07
1.26898e-07
1.28628e-07
1.27009e-07
1.27009e-07
1.26898e-07
1.26627e-07
1.25035e-07
1.26517e-07
1.26517e-07
1.25137e-07
1.25137e-07
1.26627e-07
1.25035e-07
1.26517e-07
1.26517e-07
1.25137e-07
1.25137e-07
1.26517e-07
1.25137e-07
1.25137e-07
1.26627e-07
1.25035e-07
1.26517e-07
1.25137e-07
1.25137e-07
1.25035e-07
1.24798e-07
1.23357e-07
1.24703e-07
1.24702e-07
1.23451e-07
1.23451e-07
1.24798e-07
1.23357e-07
1.24702e-07
1.24702e-07
1.23451e-07
1.23451e-07
1.24702e-07
1.23451e-07
1.23451e-07
1.24798e-07
1.23357e-07
1.24702e-07
1.23451e-07
1.23451e-07
1.23357e-07
1.23139e-07
1.21786e-07
1.23049e-07
1.23049e-07
1.21876e-07
1.21876e-07
1.23139e-07
1.21786e-07
1.23049e-07
1.23049e-07
1.21876e-07
1.21876e-07
1.23049e-07
1.21876e-07
1.21876e-07
1.23139e-07
1.21786e-07
1.23049e-07
1.21876e-07
1.21876e-07
1.21786e-07
1.21579e-07
1.20287e-07
1.21494e-07
1.21494e-07
1.20373e-07
1.20373e-07
1.21579e-07
1.20287e-07
1.21494e-07
1.21494e-07
1.20373e-07
1.20373e-07
1.21494e-07
1.20373e-07
1.20373e-07
1.21579e-07
1.20287e-07
1.21494e-07
1.20373e-07
1.20373e-07
1.20287e-07
1.20089e-07
1.18849e-07
1.20007e-07
1.20007e-07
1.18931e-07
1.18931e-07
1.20089e-07
1.1885e-07
1.20007e-07
1.20007e-07
1.18931e-07
1.18931e-07
1.20007e-07
1.18931e-07
1.18931e-07
1.20089e-07
1.18849e-07
1.20007e-07
1.18931e-07
1.18931e-07
1.18849e-07
1.18658e-07
1.17461e-07
1.18579e-07
1.18579e-07
1.1754e-07
1.1754e-07
1.18659e-07
1.17461e-07
1.18579e-07
1.18579e-07
1.1754e-07
1.1754e-07
1.18579e-07
1.1754e-07
1.1754e-07
1.18659e-07
1.17461e-07
1.18579e-07
1.1754e-07
1.1754e-07
1.17461e-07
1.17275e-07
1.16098e-07
1.17197e-07
1.17197e-07
1.16175e-07
1.16175e-07
1.17275e-07
1.16098e-07
1.17197e-07
1.17197e-07
1.16175e-07
1.16175e-07
1.17197e-07
1.16175e-07
1.16175e-07
1.17275e-07
1.16098e-07
1.17197e-07
1.16175e-07
1.16175e-07
1.16098e-07
1.15913e-07
1.14742e-07
1.15836e-07
1.15836e-07
1.14819e-07
1.14819e-07
1.15913e-07
1.14742e-07
1.15836e-07
1.15836e-07
1.14819e-07
1.14819e-07
1.15836e-07
1.14819e-07
1.14819e-07
1.15913e-07
1.14742e-07
1.15836e-07
1.14819e-07
1.14819e-07
1.14742e-07
1.14557e-07
1.13387e-07
1.1448e-07
1.1448e-07
1.13464e-07
1.13464e-07
1.14557e-07
1.13387e-07
1.1448e-07
1.1448e-07
1.13464e-07
1.13464e-07
1.1448e-07
1.13464e-07
1.13464e-07
1.14557e-07
1.13387e-07
1.1448e-07
1.13464e-07
1.13464e-07
1.13387e-07
1.13202e-07
1.12032e-07
1.13125e-07
1.13125e-07
1.12109e-07
1.12109e-07
1.13202e-07
1.12032e-07
1.13125e-07
1.13125e-07
1.12109e-07
1.12109e-07
1.13125e-07
1.12109e-07
1.12109e-07
1.13202e-07
1.12032e-07
1.13125e-07
1.12109e-07
1.12109e-07
1.12032e-07
1.11847e-07
1.10677e-07
1.1177e-07
1.1177e-07
1.10754e-07
1.10754e-07
1.11847e-07
1.10677e-07
1.1177e-07
1.1177e-07
1.10754e-07
1.10754e-07
1.1177e-07
1.10754e-07
1.10754e-07
1.11847e-07
1.10677e-07
1.1177e-07
1.10754e-07
1.10754e-07
1.10677e-07
1.10492e-07
1.09322e-07
1.10415e-07
1.10415e-07
1.09399e-07
1.09399e-07
1.10492e-07
1.09322e-07
1.10415e-07
1.10415e-07
1.09399e-07
1.09399e-07
1.10415e-07
1.09399e-07
1.09399e-07
1.10492e-07
1.09322e-07
1.10415e-07
1.09399e-07
1.09399e-07
1.09322e-07
1.09137e-07
1.07967e-07
1.0906e-07
1.0906e-07
1.08044e-07
1.08044e-07
1.09137e-07
1.07967e-07
1.0906e-07
1.0906e-07
1.08044e-07
1.08044e-07
1.0906e-07
1.08044e-07
1.08044e-07
1.09137e-07
1.07967e-07
1.0906e-07
1.08044e-07
1.08044e-07
1.07967e-07
1.07782e-07
1.06612e-07
1.07705e-07
1.07705e-07
1.06689e-07
1.06689e-07
1.07782e-07
1.06612e-07
1.07705e-07
1.07705e-07
1.06689e-07
1.06689e-07
1.07705e-07
1.06689e-07
1.06689e-07
1.07782e-07
1.06612e-07
1.07705e-07
1.06689e-07
1.06689e-07
1.06612e-07
1.06427e-07
1.05257e-07
1.0635e-07
1.0635e-07
1.05334e-07
1.05334e-07
1.06427e-07
1.05257e-07
1.0635e-07
1.0635e-07
1.05334e-07
1.05334e-07
1.0635e-07
1.05334e-07
1.05334e-07
1.06427e-07
1.05257e-07
1.0635e-07
1.05334e-07
1.05334e-07
1.05257e-07
1.05073e-07
1.03902e-07
1.04995e-07
1.04995e-07
1.0398e-07
1.0398e-07
1.05073e-07
1.03902e-07
1.04995e-07
1.04995e-07
1.0398e-07
1.0398e-07
1.04995e-07
1.0398e-07
1.0398e-07
1.05073e-07
1.03902e-07
1.04995e-07
1.0398e-07
1.0398e-07
1.03902e-07
1.03718e-07
1.02548e-07
1.03641e-07
1.03641e-07
1.02625e-07
1.02625e-07
1.03718e-07
1.02548e-07
1.03641e-07
1.03641e-07
1.02625e-07
1.02625e-07
1.03641e-07
1.02625e-07
1.02625e-07
1.03718e-07
1.02548e-07
1.03641e-07
1.02625e-07
1.02625e-07
1.02548e-07
1.02363e-07
1.01193e-07
1.02286e-07
1.02286e-07
1.0127e-07
1.0127e-07
1.02363e-07
1.01193e-07
1.02286e-07
1.02286e-07
1.0127e-07
1.0127e-07
1.02286e-07
1.0127e-07
1.0127e-07
1.02363e-07
1.01193e-07
1.02286e-07
1.0127e-07
1.0127e-07
1.01193e-07
1.01009e-07
9.98387e-08
1.00932e-07
1.00932e-07
9.99158e-08
9.99158e-08
1.01009e-07
9.98387e-08
1.00932e-07
1.00932e-07
9.99158e-08
9.99158e-08
1.00932e-07
9.99158e-08
9.99158e-08
1.01009e-07
9.98387e-08
1.00932e-07
9.99158e-08
9.99158e-08
9.98387e-08
9.96543e-08
9.84841e-08
9.95772e-08
9.95771e-08
9.85612e-08
9.85612e-08
9.96542e-08
9.84841e-08
9.95771e-08
9.95772e-08
9.85612e-08
9.85612e-08
9.95771e-08
9.85612e-08
9.85612e-08
9.96543e-08
9.84842e-08
9.95772e-08
9.85612e-08
9.85612e-08
9.84841e-08
9.82997e-08
9.71295e-08
9.82226e-08
9.82226e-08
9.72066e-08
9.72067e-08
9.82997e-08
9.71296e-08
9.82226e-08
9.82226e-08
9.72067e-08
9.72066e-08
9.82226e-08
9.72067e-08
9.72067e-08
9.82997e-08
9.71296e-08
9.82226e-08
9.72067e-08
9.72066e-08
9.71296e-08
9.69451e-08
9.57751e-08
9.6868e-08
9.6868e-08
9.58521e-08
9.58521e-08
9.69451e-08
9.5775e-08
9.6868e-08
9.6868e-08
9.58521e-08
9.58521e-08
9.6868e-08
9.58521e-08
9.58521e-08
9.69451e-08
9.5775e-08
9.6868e-08
9.58521e-08
9.58521e-08
9.5775e-08
9.55906e-08
9.44204e-08
9.55135e-08
9.55134e-08
9.44976e-08
9.44976e-08
9.55906e-08
9.44205e-08
9.55135e-08
9.55135e-08
9.44975e-08
9.44976e-08
9.55135e-08
9.44975e-08
9.44976e-08
9.55906e-08
9.44205e-08
9.55135e-08
9.44976e-08
9.44975e-08
9.44204e-08
9.4236e-08
9.3066e-08
9.41589e-08
9.41589e-08
9.3143e-08
9.3143e-08
9.42361e-08
9.30659e-08
9.41589e-08
9.41589e-08
9.3143e-08
9.3143e-08
9.41589e-08
9.3143e-08
9.3143e-08
9.4236e-08
9.30659e-08
9.41589e-08
9.3143e-08
9.3143e-08
9.30659e-08
9.28815e-08
9.17114e-08
9.28044e-08
9.28044e-08
9.17884e-08
9.17884e-08
9.28814e-08
9.17113e-08
9.28044e-08
9.28044e-08
9.17885e-08
9.17884e-08
9.28044e-08
9.17884e-08
9.17885e-08
9.28815e-08
9.17113e-08
9.28044e-08
9.17885e-08
9.17884e-08
9.17114e-08
9.15269e-08
9.03568e-08
9.14498e-08
9.14498e-08
9.04338e-08
9.04338e-08
9.15269e-08
9.03567e-08
9.14498e-08
9.14498e-08
9.04338e-08
9.04338e-08
9.14498e-08
9.04338e-08
9.04338e-08
9.15269e-08
9.03567e-08
9.14498e-08
9.04338e-08
9.04338e-08
9.03567e-08
9.01723e-08
8.90021e-08
9.00952e-08
9.00952e-08
8.90792e-08
8.90792e-08
9.01723e-08
8.90021e-08
9.00952e-08
9.00952e-08
8.90792e-08
8.90792e-08
9.00952e-08
8.90792e-08
8.90792e-08
9.01723e-08
8.90021e-08
9.00952e-08
8.90792e-08
8.90792e-08
8.90021e-08
8.88176e-08
8.76474e-08
8.87405e-08
8.87405e-08
8.77245e-08
8.77245e-08
8.88177e-08
8.76475e-08
8.87405e-08
8.87405e-08
8.77245e-08
8.77245e-08
8.87405e-08
8.77245e-08
8.77245e-08
8.88177e-08
8.76474e-08
8.87405e-08
8.77245e-08
8.77245e-08
8.76474e-08
8.7463e-08
8.62928e-08
8.73859e-08
8.73859e-08
8.63699e-08
8.63699e-08
8.7463e-08
8.62928e-08
8.73858e-08
8.73859e-08
8.63699e-08
8.63698e-08
8.73858e-08
8.63699e-08
8.63699e-08
8.7463e-08
8.62927e-08
8.73858e-08
8.63699e-08
8.63698e-08
8.62928e-08
8.61083e-08
8.49381e-08
8.60312e-08
8.60312e-08
8.50152e-08
8.50152e-08
8.61083e-08
8.49381e-08
8.60312e-08
8.60312e-08
8.50152e-08
8.50152e-08
8.60312e-08
8.50152e-08
8.50152e-08
8.61083e-08
8.49381e-08
8.60312e-08
8.50152e-08
8.50152e-08
8.49381e-08
8.47536e-08
8.35835e-08
8.46765e-08
8.46765e-08
8.36606e-08
8.36606e-08
8.47536e-08
8.35835e-08
8.46765e-08
8.46766e-08
8.36606e-08
8.36606e-08
8.46765e-08
8.36606e-08
8.36606e-08
8.47537e-08
8.35835e-08
8.46766e-08
8.36606e-08
8.36606e-08
8.35835e-08
8.3399e-08
8.22289e-08
8.33219e-08
8.33219e-08
8.2306e-08
8.2306e-08
8.3399e-08
8.22289e-08
8.33219e-08
8.33219e-08
8.2306e-08
8.2306e-08
8.3322e-08
8.2306e-08
8.2306e-08
8.3399e-08
8.22289e-08
8.33219e-08
8.2306e-08
8.23059e-08
8.22289e-08
8.20444e-08
8.08743e-08
8.19673e-08
8.19673e-08
8.09513e-08
8.09513e-08
8.20444e-08
8.08743e-08
8.19673e-08
8.19673e-08
8.09513e-08
8.09513e-08
8.19673e-08
8.09513e-08
8.09513e-08
8.20444e-08
8.08743e-08
8.19673e-08
8.09513e-08
8.09513e-08
8.08742e-08
8.06898e-08
7.95197e-08
8.06127e-08
8.06127e-08
7.95967e-08
7.95967e-08
8.06898e-08
7.95197e-08
8.06127e-08
8.06127e-08
7.95967e-08
7.95967e-08
8.06127e-08
7.95967e-08
7.95967e-08
8.06898e-08
7.95197e-08
8.06127e-08
7.95967e-08
7.95967e-08
7.95197e-08
7.93352e-08
7.81651e-08
7.92581e-08
7.92581e-08
7.82422e-08
7.82422e-08
7.93352e-08
7.81651e-08
7.92581e-08
7.92581e-08
7.82421e-08
7.82422e-08
7.92581e-08
7.82422e-08
7.82421e-08
7.93352e-08
7.81651e-08
7.92581e-08
7.82421e-08
7.82421e-08
7.81651e-08
7.79806e-08
7.68105e-08
7.79035e-08
7.79035e-08
7.68876e-08
7.68875e-08
7.79806e-08
7.68105e-08
7.79035e-08
7.79035e-08
7.68876e-08
7.68876e-08
7.79035e-08
7.68876e-08
7.68875e-08
7.79806e-08
7.68105e-08
7.79035e-08
7.68875e-08
7.68876e-08
7.68105e-08
7.6626e-08
7.54558e-08
7.65489e-08
7.65489e-08
7.55329e-08
7.55329e-08
7.6626e-08
7.54558e-08
7.65489e-08
7.65489e-08
7.55329e-08
7.55329e-08
7.65489e-08
7.55329e-08
7.55329e-08
7.6626e-08
7.54558e-08
7.65489e-08
7.55329e-08
7.55329e-08
7.54559e-08
7.52714e-08
7.41012e-08
7.51942e-08
7.51942e-08
7.41782e-08
7.41783e-08
7.52713e-08
7.41012e-08
7.51942e-08
7.51943e-08
7.41783e-08
7.41782e-08
7.51943e-08
7.41782e-08
7.41783e-08
7.52714e-08
7.41012e-08
7.51943e-08
7.41783e-08
7.41782e-08
7.41012e-08
7.39167e-08
7.27465e-08
7.38396e-08
7.38396e-08
7.28236e-08
7.28236e-08
7.39167e-08
7.27465e-08
7.38396e-08
7.38396e-08
7.28236e-08
7.28236e-08
7.38396e-08
7.28236e-08
7.28236e-08
7.39167e-08
7.27465e-08
7.38396e-08
7.28236e-08
7.28236e-08
7.27465e-08
7.2562e-08
7.13919e-08
7.24849e-08
7.24849e-08
7.1469e-08
7.1469e-08
7.2562e-08
7.13919e-08
7.24849e-08
7.24849e-08
7.1469e-08
7.1469e-08
7.24849e-08
7.1469e-08
7.1469e-08
7.2562e-08
7.13919e-08
7.24849e-08
7.1469e-08
7.1469e-08
7.13918e-08
7.12074e-08
7.00373e-08
7.11303e-08
7.11303e-08
7.01144e-08
7.01144e-08
7.12074e-08
7.00373e-08
7.11304e-08
7.11303e-08
7.01144e-08
7.01144e-08
7.11303e-08
7.01144e-08
7.01144e-08
7.12075e-08
7.00373e-08
7.11303e-08
7.01144e-08
7.01144e-08
7.00373e-08
6.98528e-08
6.86827e-08
6.97758e-08
6.97757e-08
6.87598e-08
6.87598e-08
6.98528e-08
6.86827e-08
6.97757e-08
6.97758e-08
6.87598e-08
6.87598e-08
6.97757e-08
6.87598e-08
6.87598e-08
6.98529e-08
6.86827e-08
6.97757e-08
6.87598e-08
6.87598e-08
6.86827e-08
6.84982e-08
6.73281e-08
6.84211e-08
6.84212e-08
6.74052e-08
6.74052e-08
6.84983e-08
6.73281e-08
6.84212e-08
6.84211e-08
6.74052e-08
6.74052e-08
6.84212e-08
6.74052e-08
6.74052e-08
6.84983e-08
6.73281e-08
6.84212e-08
6.74052e-08
6.74052e-08
6.73282e-08
6.71437e-08
6.59736e-08
6.70666e-08
6.70666e-08
6.60507e-08
6.60506e-08
6.71437e-08
6.59736e-08
6.70666e-08
6.70666e-08
6.60507e-08
6.60506e-08
6.70666e-08
6.60507e-08
6.60506e-08
6.71437e-08
6.59736e-08
6.70666e-08
6.60506e-08
6.60507e-08
6.59736e-08
6.57891e-08
6.4619e-08
6.5712e-08
6.5712e-08
6.46961e-08
6.46961e-08
6.57891e-08
6.4619e-08
6.5712e-08
6.5712e-08
6.46961e-08
6.46961e-08
6.5712e-08
6.46961e-08
6.46961e-08
6.57891e-08
6.4619e-08
6.5712e-08
6.46961e-08
6.46961e-08
6.4619e-08
6.44346e-08
6.32644e-08
6.43575e-08
6.43574e-08
6.33415e-08
6.33415e-08
6.44346e-08
6.32644e-08
6.43574e-08
6.43575e-08
6.33415e-08
6.33415e-08
6.43574e-08
6.33415e-08
6.33415e-08
6.44346e-08
6.32644e-08
6.43575e-08
6.33415e-08
6.33415e-08
6.32644e-08
6.30799e-08
6.19097e-08
6.30028e-08
6.30028e-08
6.19868e-08
6.19868e-08
6.308e-08
6.19097e-08
6.30028e-08
6.30028e-08
6.19868e-08
6.19868e-08
6.30029e-08
6.19868e-08
6.19868e-08
6.30799e-08
6.19097e-08
6.30028e-08
6.19868e-08
6.19868e-08
6.19097e-08
6.17252e-08
6.0555e-08
6.16481e-08
6.16481e-08
6.06321e-08
6.0632e-08
6.17252e-08
6.05549e-08
6.16481e-08
6.16481e-08
6.06321e-08
6.06321e-08
6.16481e-08
6.06321e-08
6.06321e-08
6.17253e-08
6.0555e-08
6.16481e-08
6.06321e-08
6.06321e-08
6.0555e-08
6.03705e-08
5.92002e-08
6.02934e-08
6.02933e-08
5.92773e-08
5.92773e-08
6.03705e-08
5.92002e-08
6.02934e-08
6.02934e-08
5.92773e-08
5.92773e-08
6.02934e-08
5.92773e-08
5.92773e-08
6.03705e-08
5.92002e-08
6.02934e-08
5.92773e-08
5.92773e-08
5.92002e-08
5.90157e-08
5.78455e-08
5.89386e-08
5.89386e-08
5.79225e-08
5.79225e-08
5.90157e-08
5.78454e-08
5.89386e-08
5.89386e-08
5.79225e-08
5.79225e-08
5.89386e-08
5.79225e-08
5.79225e-08
5.90157e-08
5.78454e-08
5.89386e-08
5.79225e-08
5.79225e-08
5.78454e-08
5.7661e-08
5.64907e-08
5.75838e-08
5.75839e-08
5.65678e-08
5.65678e-08
5.7661e-08
5.64907e-08
5.75839e-08
5.75838e-08
5.65678e-08
5.65678e-08
5.75839e-08
5.65678e-08
5.65678e-08
5.7661e-08
5.64907e-08
5.75838e-08
5.65678e-08
5.65678e-08
5.64907e-08
5.63063e-08
5.5136e-08
5.62291e-08
5.62291e-08
5.52131e-08
5.52131e-08
5.63062e-08
5.5136e-08
5.62291e-08
5.62291e-08
5.52131e-08
5.52131e-08
5.62291e-08
5.52131e-08
5.52131e-08
5.63062e-08
5.5136e-08
5.62291e-08
5.52131e-08
5.52131e-08
5.5136e-08
5.49515e-08
5.37813e-08
5.48744e-08
5.48744e-08
5.38584e-08
5.38584e-08
5.49515e-08
5.37813e-08
5.48744e-08
5.48744e-08
5.38584e-08
5.38584e-08
5.48744e-08
5.38584e-08
5.38584e-08
5.49515e-08
5.37813e-08
5.48744e-08
5.38584e-08
5.38584e-08
5.37813e-08
5.35968e-08
5.24266e-08
5.35197e-08
5.35197e-08
5.25037e-08
5.25037e-08
5.35968e-08
5.24267e-08
5.35197e-08
5.35197e-08
5.25037e-08
5.25038e-08
5.35197e-08
5.25038e-08
5.25037e-08
5.35968e-08
5.24267e-08
5.35197e-08
5.25037e-08
5.25038e-08
5.24266e-08
5.22422e-08
5.1072e-08
5.21651e-08
5.21651e-08
5.11491e-08
5.11491e-08
5.22422e-08
5.1072e-08
5.21651e-08
5.21651e-08
5.11491e-08
5.11491e-08
5.21651e-08
5.11491e-08
5.11491e-08
5.22422e-08
5.1072e-08
5.21651e-08
5.11491e-08
5.11491e-08
5.1072e-08
5.08876e-08
4.97174e-08
5.08105e-08
5.08105e-08
4.97945e-08
4.97945e-08
5.08876e-08
4.97174e-08
5.08105e-08
5.08104e-08
4.97945e-08
4.97945e-08
5.08105e-08
4.97945e-08
4.97945e-08
5.08876e-08
4.97174e-08
5.08104e-08
4.97945e-08
4.97945e-08
4.97174e-08
4.95329e-08
4.83628e-08
4.94558e-08
4.94558e-08
4.84398e-08
4.84399e-08
4.95329e-08
4.83627e-08
4.94558e-08
4.94558e-08
4.84398e-08
4.84398e-08
4.94558e-08
4.84399e-08
4.84398e-08
4.95329e-08
4.83628e-08
4.94558e-08
4.84398e-08
4.84398e-08
4.83627e-08
4.81783e-08
4.70081e-08
4.81012e-08
4.81012e-08
4.70852e-08
4.70852e-08
4.81783e-08
4.70081e-08
4.81012e-08
4.81012e-08
4.70852e-08
4.70852e-08
4.81012e-08
4.70852e-08
4.70852e-08
4.81783e-08
4.70081e-08
4.81012e-08
4.70852e-08
4.70852e-08
4.70081e-08
4.68236e-08
4.56535e-08
4.67465e-08
4.67465e-08
4.57306e-08
4.57306e-08
4.68237e-08
4.56534e-08
4.67465e-08
4.67466e-08
4.57306e-08
4.57305e-08
4.67465e-08
4.57305e-08
4.57306e-08
4.68237e-08
4.56535e-08
4.67465e-08
4.57306e-08
4.57306e-08
4.56535e-08
4.5469e-08
4.42988e-08
4.53919e-08
4.53919e-08
4.43759e-08
4.4376e-08
4.5469e-08
4.42989e-08
4.53919e-08
4.53919e-08
4.43759e-08
4.43759e-08
4.53919e-08
4.43759e-08
4.43759e-08
4.5469e-08
4.42989e-08
4.53919e-08
4.43759e-08
4.43759e-08
4.42988e-08
4.41144e-08
4.29443e-08
4.40373e-08
4.40373e-08
4.30213e-08
4.30213e-08
4.41144e-08
4.29442e-08
4.40373e-08
4.40373e-08
4.30213e-08
4.30214e-08
4.40373e-08
4.30213e-08
4.30213e-08
4.41144e-08
4.29442e-08
4.40373e-08
4.30213e-08
4.30213e-08
4.29442e-08
4.27598e-08
4.15897e-08
4.26827e-08
4.26827e-08
4.16668e-08
4.16668e-08
4.27598e-08
4.15897e-08
4.26827e-08
4.26827e-08
4.16668e-08
4.16668e-08
4.26827e-08
4.16668e-08
4.16668e-08
4.27598e-08
4.15897e-08
4.26827e-08
4.16668e-08
4.16668e-08
4.15897e-08
4.14052e-08
4.02352e-08
4.13281e-08
4.13281e-08
4.03123e-08
4.03122e-08
4.14053e-08
4.02352e-08
4.13281e-08
4.13281e-08
4.03123e-08
4.03123e-08
4.13281e-08
4.03122e-08
4.03123e-08
4.14053e-08
4.02352e-08
4.13281e-08
4.03123e-08
4.03123e-08
4.02352e-08
4.00507e-08
3.88807e-08
3.99736e-08
3.99736e-08
3.89578e-08
3.89578e-08
4.00507e-08
3.88807e-08
3.99737e-08
3.99736e-08
3.89578e-08
3.89578e-08
3.99737e-08
3.89578e-08
3.89578e-08
4.00507e-08
3.88807e-08
3.99736e-08
3.89578e-08
3.89578e-08
3.88807e-08
3.86963e-08
3.75263e-08
3.86192e-08
3.86192e-08
3.76033e-08
3.76033e-08
3.86963e-08
3.75262e-08
3.86192e-08
3.86192e-08
3.76033e-08
3.76034e-08
3.86192e-08
3.76033e-08
3.76033e-08
3.86963e-08
3.75263e-08
3.86192e-08
3.76033e-08
3.76034e-08
3.75263e-08
3.73419e-08
3.61718e-08
3.72647e-08
3.72647e-08
3.62489e-08
3.62489e-08
3.73418e-08
3.61718e-08
3.72647e-08
3.72648e-08
3.62489e-08
3.62488e-08
3.72647e-08
3.62489e-08
3.62489e-08
3.73418e-08
3.61718e-08
3.72647e-08
3.62489e-08
3.62489e-08
3.61718e-08
3.59873e-08
3.48173e-08
3.59103e-08
3.59103e-08
3.48943e-08
3.48944e-08
3.59874e-08
3.48173e-08
3.59103e-08
3.59102e-08
3.48943e-08
3.48944e-08
3.59102e-08
3.48944e-08
3.48944e-08
3.59874e-08
3.48173e-08
3.59102e-08
3.48944e-08
3.48943e-08
3.48173e-08
3.46328e-08
3.34627e-08
3.45557e-08
3.45557e-08
3.35398e-08
3.35398e-08
3.46328e-08
3.34627e-08
3.45557e-08
3.45557e-08
3.35398e-08
3.35398e-08
3.45557e-08
3.35398e-08
3.35398e-08
3.46328e-08
3.34627e-08
3.45557e-08
3.35398e-08
3.35398e-08
3.34627e-08
3.32783e-08
3.21082e-08
3.32012e-08
3.32012e-08
3.21853e-08
3.21853e-08
3.32783e-08
3.21082e-08
3.32012e-08
3.32012e-08
3.21853e-08
3.21853e-08
3.32012e-08
3.21853e-08
3.21852e-08
3.32783e-08
3.21082e-08
3.32012e-08
3.21853e-08
3.21853e-08
3.21082e-08
3.19237e-08
3.07537e-08
3.18466e-08
3.18466e-08
3.08307e-08
3.08307e-08
3.19237e-08
3.07537e-08
3.18466e-08
3.18466e-08
3.08307e-08
3.08307e-08
3.18466e-08
3.08307e-08
3.08307e-08
3.19237e-08
3.07537e-08
3.18466e-08
3.08307e-08
3.08307e-08
3.07537e-08
3.05692e-08
2.93991e-08
3.04921e-08
3.04921e-08
2.94762e-08
2.94762e-08
3.05692e-08
2.93991e-08
3.04921e-08
3.04921e-08
2.94762e-08
2.94762e-08
3.04921e-08
2.94762e-08
2.94762e-08
3.05692e-08
2.93991e-08
3.04921e-08
2.94762e-08
2.94762e-08
2.93991e-08
2.92147e-08
2.80446e-08
2.91376e-08
2.91376e-08
2.81217e-08
2.81217e-08
2.92147e-08
2.80446e-08
2.91376e-08
2.91376e-08
2.81217e-08
2.81217e-08
2.91376e-08
2.81217e-08
2.81217e-08
2.92147e-08
2.80446e-08
2.91376e-08
2.81217e-08
2.81217e-08
2.80446e-08
2.78601e-08
2.669e-08
2.7783e-08
2.7783e-08
2.67671e-08
2.67671e-08
2.78601e-08
2.66901e-08
2.7783e-08
2.7783e-08
2.67671e-08
2.67671e-08
2.7783e-08
2.67671e-08
2.67671e-08
2.78602e-08
2.669e-08
2.7783e-08
2.67671e-08
2.67671e-08
2.669e-08
2.65056e-08
2.53355e-08
2.64285e-08
2.64285e-08
2.54126e-08
2.54126e-08
2.65056e-08
2.53355e-08
2.64285e-08
2.64285e-08
2.54126e-08
2.54126e-08
2.64285e-08
2.54126e-08
2.54126e-08
2.65056e-08
2.53355e-08
2.64285e-08
2.54126e-08
2.54126e-08
2.53355e-08
2.5151e-08
2.39809e-08
2.50739e-08
2.50739e-08
2.4058e-08
2.4058e-08
2.5151e-08
2.39809e-08
2.50739e-08
2.50739e-08
2.4058e-08
2.4058e-08
2.50739e-08
2.4058e-08
2.4058e-08
2.51511e-08
2.3981e-08
2.50739e-08
2.4058e-08
2.4058e-08
2.39809e-08
2.37965e-08
2.26263e-08
2.37194e-08
2.37194e-08
2.27034e-08
2.27034e-08
2.37965e-08
2.26263e-08
2.37194e-08
2.37194e-08
2.27034e-08
2.27034e-08
2.37194e-08
2.27034e-08
2.27034e-08
2.37965e-08
2.26263e-08
2.37193e-08
2.27034e-08
2.27034e-08
2.26263e-08
2.24419e-08
2.12717e-08
2.23648e-08
2.23648e-08
2.13488e-08
2.13488e-08
2.24419e-08
2.12717e-08
2.23648e-08
2.23648e-08
2.13488e-08
2.13488e-08
2.23648e-08
2.13488e-08
2.13488e-08
2.24419e-08
2.12717e-08
2.23648e-08
2.13488e-08
2.13488e-08
2.12717e-08
2.10873e-08
1.99171e-08
2.10102e-08
2.10102e-08
1.99942e-08
1.99942e-08
2.10873e-08
1.99171e-08
2.10102e-08
2.10101e-08
1.99942e-08
1.99942e-08
2.10101e-08
1.99942e-08
1.99942e-08
2.10873e-08
1.99171e-08
2.10101e-08
1.99942e-08
1.99942e-08
1.99171e-08
1.97326e-08
1.85624e-08
1.96555e-08
1.96555e-08
1.86395e-08
1.86395e-08
1.97326e-08
1.85624e-08
1.96555e-08
1.96555e-08
1.86395e-08
1.86395e-08
1.96555e-08
1.86395e-08
1.86395e-08
1.97326e-08
1.85624e-08
1.96555e-08
1.86395e-08
1.86395e-08
1.85624e-08
1.83779e-08
1.72077e-08
1.83008e-08
1.83008e-08
1.72848e-08
1.72848e-08
1.83779e-08
1.72077e-08
1.83008e-08
1.83008e-08
1.72848e-08
1.72848e-08
1.83008e-08
1.72848e-08
1.72848e-08
1.83779e-08
1.72077e-08
1.83008e-08
1.72848e-08
1.72848e-08
1.72077e-08
1.70232e-08
1.5853e-08
1.69461e-08
1.69461e-08
1.59301e-08
1.59301e-08
1.70232e-08
1.5853e-08
1.69461e-08
1.69461e-08
1.59301e-08
1.59301e-08
1.69461e-08
1.59301e-08
1.59301e-08
1.70232e-08
1.5853e-08
1.69461e-08
1.59301e-08
1.59301e-08
1.5853e-08
1.56685e-08
1.44984e-08
1.55914e-08
1.55914e-08
1.45754e-08
1.45754e-08
1.56685e-08
1.44984e-08
1.55914e-08
1.55914e-08
1.45754e-08
1.45754e-08
1.55914e-08
1.45754e-08
1.45754e-08
1.56685e-08
1.44983e-08
1.55914e-08
1.45754e-08
1.45754e-08
1.44983e-08
1.43139e-08
1.31438e-08
1.42368e-08
1.42368e-08
1.32208e-08
1.32208e-08
1.43139e-08
1.31437e-08
1.42368e-08
1.42368e-08
1.32208e-08
1.32208e-08
1.42368e-08
1.32208e-08
1.32208e-08
1.43139e-08
1.31437e-08
1.42368e-08
1.32208e-08
1.32208e-08
1.31437e-08
1.29593e-08
1.17891e-08
1.28822e-08
1.28822e-08
1.18662e-08
1.18662e-08
1.29593e-08
1.17891e-08
1.28822e-08
1.28822e-08
1.18662e-08
1.18662e-08
1.28822e-08
1.18662e-08
1.18662e-08
1.29593e-08
1.17891e-08
1.28822e-08
1.18662e-08
1.18662e-08
1.17891e-08
1.16046e-08
1.04345e-08
1.15275e-08
1.15275e-08
1.05116e-08
1.05116e-08
1.16047e-08
1.04345e-08
1.15276e-08
1.15276e-08
1.05116e-08
1.05116e-08
1.15276e-08
1.05116e-08
1.05116e-08
1.16047e-08
1.04345e-08
1.15276e-08
1.05116e-08
1.05116e-08
1.04345e-08
1.02501e-08
9.07997e-09
1.0173e-08
1.01729e-08
9.15703e-09
9.15701e-09
1.02501e-08
9.07994e-09
1.01729e-08
1.0173e-08
9.15702e-09
9.15703e-09
1.01729e-08
9.15701e-09
9.15701e-09
1.02501e-08
9.07993e-09
1.01729e-08
9.15702e-09
9.15702e-09
9.07993e-09
8.89549e-09
7.72538e-09
8.81839e-09
8.81837e-09
7.80247e-09
7.80247e-09
8.89549e-09
7.7254e-09
8.8184e-09
8.81838e-09
7.80248e-09
7.80248e-09
8.81838e-09
7.80247e-09
7.80246e-09
8.89549e-09
7.72541e-09
8.81838e-09
7.80249e-09
7.80247e-09
7.72539e-09
7.54094e-09
6.37086e-09
7.46385e-09
7.46385e-09
6.44793e-09
6.44793e-09
7.54095e-09
6.37084e-09
7.46385e-09
7.46385e-09
6.44793e-09
6.44793e-09
7.46383e-09
6.44795e-09
6.44793e-09
7.54096e-09
6.37086e-09
7.46385e-09
6.44792e-09
6.44795e-09
6.37087e-09
6.18642e-09
5.0163e-09
6.10933e-09
6.10933e-09
5.09337e-09
5.0934e-09
6.1864e-09
5.01632e-09
6.10933e-09
6.10933e-09
5.09337e-09
5.09338e-09
6.10935e-09
5.09339e-09
5.09339e-09
6.18641e-09
5.01629e-09
6.10935e-09
5.09338e-09
5.09337e-09
5.01626e-09
4.83187e-09
3.66168e-09
4.75486e-09
4.75489e-09
3.73877e-09
3.73877e-09
4.83189e-09
3.66167e-09
4.75486e-09
4.75486e-09
3.73877e-09
3.73878e-09
4.75488e-09
3.73877e-09
3.73878e-09
4.83187e-09
3.66168e-09
4.75485e-09
3.73878e-09
3.73878e-09
3.66166e-09
3.47728e-09
2.307e-09
3.4005e-09
3.4005e-09
2.38351e-09
2.38351e-09
3.47726e-09
2.307e-09
3.4005e-09
3.40051e-09
2.38351e-09
2.38353e-09
3.40051e-09
2.38352e-09
2.38351e-09
3.47729e-09
2.30702e-09
3.40051e-09
2.38353e-09
2.38352e-09
2.30701e-09
2.12336e-09
9.54549e-10
2.04591e-09
2.0459e-09
1.04113e-09
1.04114e-09
2.12334e-09
9.5455e-10
2.04589e-09
2.04592e-09
1.04122e-09
1.04114e-09
2.0459e-09
1.04119e-09
1.0411e-09
2.12336e-09
9.54519e-10
2.0459e-09
1.04115e-09
1.04121e-09
9.54522e-10
7.67428e-10
7.17232e-10
7.17256e-10
7.67416e-10
7.17373e-10
7.17254e-10
6.882e-10
6.88214e-10
6.88216e-10
7.17203e-10
7.67387e-10
7.1737e-10
1.32972e-07
1.33593e-07
1.3326e-07
1.3326e-07
1.35008e-07
1.33853e-07
1.36392e-07
1.33483e-07
1.35008e-07
1.33853e-07
1.33483e-07
1.36392e-07
1.34147e-07
1.36861e-07
1.36861e-07
1.30314e-07
1.31489e-07
1.3158e-07
1.30271e-07
1.31471e-07
1.30256e-07
1.30314e-07
1.31489e-07
1.3158e-07
1.30271e-07
1.31628e-07
1.31628e-07
1.31628e-07
1.29336e-07
1.29336e-07
1.29336e-07
1.29336e-07
1.30375e-07
1.31591e-07
1.31604e-07
1.30692e-07
1.3166e-07
1.30321e-07
1.30747e-07
1.31471e-07
1.30256e-07
1.30375e-07
1.31604e-07
1.31591e-07
1.30692e-07
1.3166e-07
1.30747e-07
1.30321e-07
1.31564e-07
1.31564e-07
1.30492e-07
1.303e-07
1.303e-07
1.27879e-07
1.28686e-07
1.28706e-07
1.27864e-07
1.2868e-07
1.2786e-07
1.27879e-07
1.28686e-07
1.28706e-07
1.27864e-07
1.28704e-07
1.28704e-07
1.28704e-07