/*--------------------------------*- C++ -*----------------------------------*\
| =========                 |                                                 |
| \\      /  F ield         | OpenFOAM: The Open Source CFD Toolbox           |
|  \\    /   O peration     | Version:  v2012                                 |
|   \\  /    A nd           | Website:  www.openfoam.com                      |
|    \\/     M anipulation  |                                                 |
\*---------------------------------------------------------------------------*/
FoamFile
{
    version     2.0;
    format      ascii;
    class       volScalarField;
    location    "12500";
    object      p;
}
// * * * * * * * * * * * * * * * * * * * * * * * * * * * * * * * * * * * * * //

dimensions      [0 2 -2 0 0 0 0];


internalField   nonuniform List<scalar> 
169728
(
1.45783e-07
1.45717e-07
1.45717e-07
1.45885e-07
1.4286e-07
1.42784e-07
1.42784e-07
1.42915e-07
1.40702e-07
1.40675e-07
1.40675e-07
1.40783e-07
1.38938e-07
1.38936e-07
1.38936e-07
1.39026e-07
1.3739e-07
1.37389e-07
1.37389e-07
1.37476e-07
1.35872e-07
1.35872e-07
1.35872e-07
1.35959e-07
1.34355e-07
1.34354e-07
1.34354e-07
1.34441e-07
1.32837e-07
1.32837e-07
1.32837e-07
1.32923e-07
1.31319e-07
1.31319e-07
1.31319e-07
1.31406e-07
1.29801e-07
1.29801e-07
1.29801e-07
1.29888e-07
1.28284e-07
1.28284e-07
1.28284e-07
1.2837e-07
1.26766e-07
1.26766e-07
1.26766e-07
1.26853e-07
1.25248e-07
1.25248e-07
1.25248e-07
1.25335e-07
1.23731e-07
1.2373e-07
1.2373e-07
1.23817e-07
1.22213e-07
1.22213e-07
1.22213e-07
1.22299e-07
1.20695e-07
1.20695e-07
1.20695e-07
1.20782e-07
1.19177e-07
1.19177e-07
1.19177e-07
1.19264e-07
1.1766e-07
1.17659e-07
1.17659e-07
1.17746e-07
1.16142e-07
1.16142e-07
1.16142e-07
1.16228e-07
1.14624e-07
1.14624e-07
1.14624e-07
1.14711e-07
1.13106e-07
1.13106e-07
1.13106e-07
1.13193e-07
1.11589e-07
1.11588e-07
1.11588e-07
1.11675e-07
1.10071e-07
1.10071e-07
1.10071e-07
1.10158e-07
1.08553e-07
1.08553e-07
1.08553e-07
1.0864e-07
1.07035e-07
1.07035e-07
1.07035e-07
1.07122e-07
1.05518e-07
1.05518e-07
1.05518e-07
1.05604e-07
1.04e-07
1.04e-07
1.04e-07
1.04087e-07
1.02482e-07
1.02482e-07
1.02482e-07
1.02569e-07
1.00965e-07
1.00964e-07
1.00964e-07
1.01051e-07
9.94467e-08
9.94465e-08
9.94465e-08
9.95333e-08
9.79289e-08
9.79287e-08
9.79287e-08
9.80155e-08
9.64112e-08
9.6411e-08
9.6411e-08
9.64978e-08
9.48934e-08
9.48932e-08
9.48931e-08
9.498e-08
9.33756e-08
9.33754e-08
9.33754e-08
9.34622e-08
9.18578e-08
9.18576e-08
9.18576e-08
9.19444e-08
9.03401e-08
9.03398e-08
9.03398e-08
9.04266e-08
8.88223e-08
8.88221e-08
8.88221e-08
8.89089e-08
8.73045e-08
8.73043e-08
8.73043e-08
8.73912e-08
8.57868e-08
8.57867e-08
8.57866e-08
8.58734e-08
8.42691e-08
8.42689e-08
8.42689e-08
8.43558e-08
8.27515e-08
8.27513e-08
8.27513e-08
8.28381e-08
8.12338e-08
8.12336e-08
8.12336e-08
8.13204e-08
7.97161e-08
7.97159e-08
7.97159e-08
7.98027e-08
7.81985e-08
7.81983e-08
7.81983e-08
7.82851e-08
7.66809e-08
7.66807e-08
7.66807e-08
7.67675e-08
7.51633e-08
7.51631e-08
7.5163e-08
7.52499e-08
7.36456e-08
7.36454e-08
7.36454e-08
7.37322e-08
7.2128e-08
7.21278e-08
7.21278e-08
7.22146e-08
7.06103e-08
7.06101e-08
7.06101e-08
7.06969e-08
6.90926e-08
6.90924e-08
6.90924e-08
6.91792e-08
6.7575e-08
6.75747e-08
6.75748e-08
6.76616e-08
6.60573e-08
6.60571e-08
6.60571e-08
6.61439e-08
6.45396e-08
6.45393e-08
6.45394e-08
6.46262e-08
6.30218e-08
6.30216e-08
6.30216e-08
6.31084e-08
6.15041e-08
6.15039e-08
6.15038e-08
6.15907e-08
5.99863e-08
5.9986e-08
5.99861e-08
6.00729e-08
5.84685e-08
5.84683e-08
5.84683e-08
5.85551e-08
5.69507e-08
5.69505e-08
5.69505e-08
5.70373e-08
5.54329e-08
5.54327e-08
5.54327e-08
5.55195e-08
5.39151e-08
5.39149e-08
5.39149e-08
5.40017e-08
5.23973e-08
5.23971e-08
5.23971e-08
5.24839e-08
5.08795e-08
5.08793e-08
5.08793e-08
5.09662e-08
4.93617e-08
4.93615e-08
4.93615e-08
4.94483e-08
4.78439e-08
4.78437e-08
4.78437e-08
4.79306e-08
4.63262e-08
4.6326e-08
4.6326e-08
4.64128e-08
4.48084e-08
4.48082e-08
4.48082e-08
4.4895e-08
4.32907e-08
4.32905e-08
4.32905e-08
4.33773e-08
4.17729e-08
4.17727e-08
4.17727e-08
4.18595e-08
4.02552e-08
4.0255e-08
4.0255e-08
4.03418e-08
3.87374e-08
3.87372e-08
3.87372e-08
3.8824e-08
3.72197e-08
3.72194e-08
3.72194e-08
3.73062e-08
3.57019e-08
3.57016e-08
3.57016e-08
3.57885e-08
3.41841e-08
3.41839e-08
3.41839e-08
3.42707e-08
3.26664e-08
3.26662e-08
3.26662e-08
3.2753e-08
3.11487e-08
3.11485e-08
3.11485e-08
3.12353e-08
2.96309e-08
2.96308e-08
2.96308e-08
2.97176e-08
2.81133e-08
2.81131e-08
2.8113e-08
2.81999e-08
2.65955e-08
2.65953e-08
2.65954e-08
2.66821e-08
2.50779e-08
2.50776e-08
2.50776e-08
2.51645e-08
2.35602e-08
2.356e-08
2.356e-08
2.36468e-08
2.20426e-08
2.20423e-08
2.20423e-08
2.21292e-08
2.05249e-08
2.05247e-08
2.05247e-08
2.06115e-08
1.90074e-08
1.90071e-08
1.90072e-08
1.9094e-08
1.74898e-08
1.74895e-08
1.74896e-08
1.75764e-08
1.59722e-08
1.59719e-08
1.59719e-08
1.60588e-08
1.44546e-08
1.44543e-08
1.44543e-08
1.45411e-08
1.29369e-08
1.29367e-08
1.29367e-08
1.30235e-08
1.14193e-08
1.14191e-08
1.14191e-08
1.15059e-08
9.90172e-09
9.90147e-09
9.90148e-09
9.98829e-09
8.38401e-09
8.3838e-09
8.38381e-09
8.47062e-09
6.86633e-09
6.86609e-09
6.86608e-09
6.95292e-09
5.3486e-09
5.34837e-09
5.34835e-09
5.43514e-09
3.83088e-09
3.83067e-09
3.83067e-09
3.91733e-09
2.31384e-09
2.31251e-09
2.3125e-09
2.39993e-09
7.78583e-10
8.18078e-10
8.18064e-10
8.80285e-10
1.46445e-07
1.46665e-07
1.46665e-07
1.46445e-07
1.46664e-07
1.46664e-07
1.4661e-07
1.4661e-07
1.4661e-07
1.4661e-07
1.46664e-07
1.46665e-07
1.46445e-07
1.46665e-07
1.46664e-07
1.46445e-07
1.45885e-07
1.43255e-07
1.45717e-07
1.45717e-07
1.43396e-07
1.43396e-07
1.45885e-07
1.43255e-07
1.45717e-07
1.45717e-07
1.43396e-07
1.43396e-07
1.45717e-07
1.43396e-07
1.43396e-07
1.45885e-07
1.43255e-07
1.45717e-07
1.43396e-07
1.43396e-07
1.43255e-07
1.42915e-07
1.41053e-07
1.42784e-07
1.42784e-07
1.41165e-07
1.41165e-07
1.42915e-07
1.41053e-07
1.42784e-07
1.42784e-07
1.41165e-07
1.41165e-07
1.42784e-07
1.41165e-07
1.41165e-07
1.42915e-07
1.41053e-07
1.42784e-07
1.41165e-07
1.41165e-07
1.41053e-07
1.40783e-07
1.39245e-07
1.40675e-07
1.40675e-07
1.39343e-07
1.39343e-07
1.40783e-07
1.39245e-07
1.40675e-07
1.40675e-07
1.39343e-07
1.39343e-07
1.40675e-07
1.39343e-07
1.39343e-07
1.40783e-07
1.39244e-07
1.40675e-07
1.39343e-07
1.39343e-07
1.39245e-07
1.39026e-07
1.37683e-07
1.38936e-07
1.38936e-07
1.3777e-07
1.3777e-07
1.39026e-07
1.37683e-07
1.38936e-07
1.38936e-07
1.3777e-07
1.3777e-07
1.38936e-07
1.3777e-07
1.3777e-07
1.39026e-07
1.37683e-07
1.38936e-07
1.3777e-07
1.3777e-07
1.37683e-07
1.37476e-07
1.36164e-07
1.37389e-07
1.37389e-07
1.36251e-07
1.36251e-07
1.37476e-07
1.36164e-07
1.37389e-07
1.37389e-07
1.36251e-07
1.36251e-07
1.37389e-07
1.36251e-07
1.36251e-07
1.37476e-07
1.36164e-07
1.37389e-07
1.36251e-07
1.36251e-07
1.36164e-07
1.35959e-07
1.34647e-07
1.35872e-07
1.35872e-07
1.34734e-07
1.34734e-07
1.35959e-07
1.34647e-07
1.35872e-07
1.35872e-07
1.34734e-07
1.34734e-07
1.35872e-07
1.34734e-07
1.34734e-07
1.35959e-07
1.34647e-07
1.35872e-07
1.34734e-07
1.34734e-07
1.34647e-07
1.34441e-07
1.33129e-07
1.34354e-07
1.34354e-07
1.33216e-07
1.33216e-07
1.34441e-07
1.33129e-07
1.34354e-07
1.34354e-07
1.33216e-07
1.33216e-07
1.34354e-07
1.33216e-07
1.33216e-07
1.34441e-07
1.33129e-07
1.34354e-07
1.33216e-07
1.33216e-07
1.33129e-07
1.32923e-07
1.31612e-07
1.32837e-07
1.32837e-07
1.31698e-07
1.31698e-07
1.32923e-07
1.31612e-07
1.32837e-07
1.32837e-07
1.31698e-07
1.31698e-07
1.32837e-07
1.31698e-07
1.31698e-07
1.32923e-07
1.31612e-07
1.32837e-07
1.31698e-07
1.31698e-07
1.31612e-07
1.31406e-07
1.30094e-07
1.31319e-07
1.31319e-07
1.30181e-07
1.30181e-07
1.31406e-07
1.30094e-07
1.31319e-07
1.31319e-07
1.30181e-07
1.30181e-07
1.31319e-07
1.30181e-07
1.30181e-07
1.31406e-07
1.30094e-07
1.31319e-07
1.30181e-07
1.30181e-07
1.30094e-07
1.29888e-07
1.28576e-07
1.29801e-07
1.29801e-07
1.28663e-07
1.28663e-07
1.29888e-07
1.28576e-07
1.29801e-07
1.29801e-07
1.28663e-07
1.28663e-07
1.29801e-07
1.28663e-07
1.28663e-07
1.29888e-07
1.28576e-07
1.29801e-07
1.28663e-07
1.28663e-07
1.28576e-07
1.2837e-07
1.27058e-07
1.28284e-07
1.28284e-07
1.27145e-07
1.27145e-07
1.2837e-07
1.27058e-07
1.28284e-07
1.28284e-07
1.27145e-07
1.27145e-07
1.28284e-07
1.27145e-07
1.27145e-07
1.2837e-07
1.27058e-07
1.28284e-07
1.27145e-07
1.27145e-07
1.27058e-07
1.26853e-07
1.25541e-07
1.26766e-07
1.26766e-07
1.25628e-07
1.25628e-07
1.26853e-07
1.25541e-07
1.26766e-07
1.26766e-07
1.25628e-07
1.25628e-07
1.26766e-07
1.25628e-07
1.25628e-07
1.26853e-07
1.25541e-07
1.26766e-07
1.25628e-07
1.25628e-07
1.25541e-07
1.25335e-07
1.24023e-07
1.25248e-07
1.25248e-07
1.2411e-07
1.2411e-07
1.25335e-07
1.24023e-07
1.25248e-07
1.25248e-07
1.2411e-07
1.2411e-07
1.25248e-07
1.2411e-07
1.2411e-07
1.25335e-07
1.24023e-07
1.25248e-07
1.2411e-07
1.2411e-07
1.24023e-07
1.23817e-07
1.22505e-07
1.2373e-07
1.2373e-07
1.22592e-07
1.22592e-07
1.23817e-07
1.22505e-07
1.2373e-07
1.2373e-07
1.22592e-07
1.22592e-07
1.2373e-07
1.22592e-07
1.22592e-07
1.23817e-07
1.22505e-07
1.2373e-07
1.22592e-07
1.22592e-07
1.22505e-07
1.22299e-07
1.20988e-07
1.22213e-07
1.22213e-07
1.21074e-07
1.21074e-07
1.22299e-07
1.20988e-07
1.22213e-07
1.22213e-07
1.21074e-07
1.21074e-07
1.22213e-07
1.21074e-07
1.21074e-07
1.22299e-07
1.20988e-07
1.22213e-07
1.21074e-07
1.21074e-07
1.20988e-07
1.20782e-07
1.1947e-07
1.20695e-07
1.20695e-07
1.19557e-07
1.19557e-07
1.20782e-07
1.1947e-07
1.20695e-07
1.20695e-07
1.19557e-07
1.19557e-07
1.20695e-07
1.19557e-07
1.19557e-07
1.20782e-07
1.1947e-07
1.20695e-07
1.19557e-07
1.19557e-07
1.1947e-07
1.19264e-07
1.17952e-07
1.19177e-07
1.19177e-07
1.18039e-07
1.18039e-07
1.19264e-07
1.17952e-07
1.19177e-07
1.19177e-07
1.18039e-07
1.18039e-07
1.19177e-07
1.18039e-07
1.18039e-07
1.19264e-07
1.17952e-07
1.19177e-07
1.18039e-07
1.18039e-07
1.17952e-07
1.17746e-07
1.16434e-07
1.17659e-07
1.17659e-07
1.16521e-07
1.16521e-07
1.17746e-07
1.16434e-07
1.17659e-07
1.17659e-07
1.16521e-07
1.16521e-07
1.17659e-07
1.16521e-07
1.16521e-07
1.17746e-07
1.16434e-07
1.17659e-07
1.16521e-07
1.16521e-07
1.16434e-07
1.16228e-07
1.14917e-07
1.16142e-07
1.16142e-07
1.15003e-07
1.15003e-07
1.16228e-07
1.14917e-07
1.16142e-07
1.16142e-07
1.15003e-07
1.15003e-07
1.16142e-07
1.15003e-07
1.15003e-07
1.16228e-07
1.14917e-07
1.16142e-07
1.15003e-07
1.15003e-07
1.14917e-07
1.14711e-07
1.13399e-07
1.14624e-07
1.14624e-07
1.13486e-07
1.13486e-07
1.14711e-07
1.13399e-07
1.14624e-07
1.14624e-07
1.13486e-07
1.13486e-07
1.14624e-07
1.13486e-07
1.13486e-07
1.14711e-07
1.13399e-07
1.14624e-07
1.13486e-07
1.13486e-07
1.13399e-07
1.13193e-07
1.11881e-07
1.13106e-07
1.13106e-07
1.11968e-07
1.11968e-07
1.13193e-07
1.11881e-07
1.13106e-07
1.13106e-07
1.11968e-07
1.11968e-07
1.13106e-07
1.11968e-07
1.11968e-07
1.13193e-07
1.11881e-07
1.13106e-07
1.11968e-07
1.11968e-07
1.11881e-07
1.11675e-07
1.10363e-07
1.11588e-07
1.11588e-07
1.1045e-07
1.1045e-07
1.11675e-07
1.10363e-07
1.11588e-07
1.11588e-07
1.1045e-07
1.1045e-07
1.11588e-07
1.1045e-07
1.1045e-07
1.11675e-07
1.10363e-07
1.11589e-07
1.1045e-07
1.1045e-07
1.10363e-07
1.10158e-07
1.08846e-07
1.10071e-07
1.10071e-07
1.08932e-07
1.08932e-07
1.10158e-07
1.08846e-07
1.10071e-07
1.10071e-07
1.08932e-07
1.08932e-07
1.10071e-07
1.08932e-07
1.08932e-07
1.10158e-07
1.08846e-07
1.10071e-07
1.08932e-07
1.08932e-07
1.08846e-07
1.0864e-07
1.07328e-07
1.08553e-07
1.08553e-07
1.07415e-07
1.07415e-07
1.0864e-07
1.07328e-07
1.08553e-07
1.08553e-07
1.07415e-07
1.07415e-07
1.08553e-07
1.07415e-07
1.07415e-07
1.0864e-07
1.07328e-07
1.08553e-07
1.07415e-07
1.07415e-07
1.07328e-07
1.07122e-07
1.0581e-07
1.07035e-07
1.07035e-07
1.05897e-07
1.05897e-07
1.07122e-07
1.0581e-07
1.07035e-07
1.07035e-07
1.05897e-07
1.05897e-07
1.07035e-07
1.05897e-07
1.05897e-07
1.07122e-07
1.0581e-07
1.07035e-07
1.05897e-07
1.05897e-07
1.0581e-07
1.05604e-07
1.04292e-07
1.05518e-07
1.05518e-07
1.04379e-07
1.04379e-07
1.05604e-07
1.04292e-07
1.05518e-07
1.05518e-07
1.04379e-07
1.04379e-07
1.05518e-07
1.04379e-07
1.04379e-07
1.05604e-07
1.04292e-07
1.05518e-07
1.04379e-07
1.04379e-07
1.04292e-07
1.04087e-07
1.02775e-07
1.04e-07
1.04e-07
1.02861e-07
1.02861e-07
1.04087e-07
1.02775e-07
1.04e-07
1.04e-07
1.02861e-07
1.02861e-07
1.04e-07
1.02861e-07
1.02861e-07
1.04087e-07
1.02775e-07
1.04e-07
1.02861e-07
1.02861e-07
1.02775e-07
1.02569e-07
1.01257e-07
1.02482e-07
1.02482e-07
1.01344e-07
1.01344e-07
1.02569e-07
1.01257e-07
1.02482e-07
1.02482e-07
1.01344e-07
1.01344e-07
1.02482e-07
1.01344e-07
1.01344e-07
1.02569e-07
1.01257e-07
1.02482e-07
1.01344e-07
1.01344e-07
1.01257e-07
1.01051e-07
9.97391e-08
1.00964e-07
1.00964e-07
9.98259e-08
9.98259e-08
1.01051e-07
9.97391e-08
1.00964e-07
1.00964e-07
9.9826e-08
9.98259e-08
1.00964e-07
9.98259e-08
9.98259e-08
1.01051e-07
9.97392e-08
1.00964e-07
9.9826e-08
9.98259e-08
9.97392e-08
9.95333e-08
9.82214e-08
9.94465e-08
9.94465e-08
9.83082e-08
9.83082e-08
9.95333e-08
9.82214e-08
9.94465e-08
9.94465e-08
9.83082e-08
9.83082e-08
9.94465e-08
9.83082e-08
9.83082e-08
9.95333e-08
9.82214e-08
9.94465e-08
9.83082e-08
9.83082e-08
9.82213e-08
9.80156e-08
9.67036e-08
9.79288e-08
9.79287e-08
9.67904e-08
9.67904e-08
9.80156e-08
9.67036e-08
9.79287e-08
9.79288e-08
9.67904e-08
9.67904e-08
9.79287e-08
9.67904e-08
9.67904e-08
9.80155e-08
9.67036e-08
9.79287e-08
9.67904e-08
9.67904e-08
9.67036e-08
9.64978e-08
9.51858e-08
9.6411e-08
9.6411e-08
9.52726e-08
9.52726e-08
9.64978e-08
9.51858e-08
9.6411e-08
9.64109e-08
9.52726e-08
9.52726e-08
9.6411e-08
9.52726e-08
9.52726e-08
9.64978e-08
9.51858e-08
9.6411e-08
9.52726e-08
9.52726e-08
9.51858e-08
9.498e-08
9.3668e-08
9.48932e-08
9.48931e-08
9.37548e-08
9.37548e-08
9.49799e-08
9.3668e-08
9.48931e-08
9.48932e-08
9.37548e-08
9.37548e-08
9.48931e-08
9.37548e-08
9.37548e-08
9.498e-08
9.3668e-08
9.48932e-08
9.37548e-08
9.37548e-08
9.3668e-08
9.34622e-08
9.21502e-08
9.33754e-08
9.33754e-08
9.2237e-08
9.22371e-08
9.34622e-08
9.21503e-08
9.33754e-08
9.33754e-08
9.22371e-08
9.2237e-08
9.33754e-08
9.2237e-08
9.22371e-08
9.34622e-08
9.21502e-08
9.33754e-08
9.22371e-08
9.2237e-08
9.21502e-08
9.19444e-08
9.06325e-08
9.18576e-08
9.18576e-08
9.07192e-08
9.07193e-08
9.19444e-08
9.06325e-08
9.18576e-08
9.18576e-08
9.07193e-08
9.07192e-08
9.18576e-08
9.07192e-08
9.07193e-08
9.19444e-08
9.06325e-08
9.18576e-08
9.07192e-08
9.07192e-08
9.06324e-08
9.04266e-08
8.91147e-08
9.03398e-08
9.03398e-08
8.92015e-08
8.92015e-08
9.04266e-08
8.91147e-08
9.03398e-08
9.03398e-08
8.92015e-08
8.92015e-08
9.03398e-08
8.92015e-08
8.92015e-08
9.04266e-08
8.91147e-08
9.03398e-08
8.92015e-08
8.92015e-08
8.91147e-08
8.89089e-08
8.7597e-08
8.88221e-08
8.88221e-08
8.76838e-08
8.76838e-08
8.89089e-08
8.7597e-08
8.88221e-08
8.88221e-08
8.76837e-08
8.76838e-08
8.88221e-08
8.76838e-08
8.76838e-08
8.89089e-08
8.7597e-08
8.88221e-08
8.76838e-08
8.76838e-08
8.7597e-08
8.73912e-08
8.60792e-08
8.73043e-08
8.73043e-08
8.61661e-08
8.6166e-08
8.73911e-08
8.60793e-08
8.73043e-08
8.73043e-08
8.61661e-08
8.61661e-08
8.73043e-08
8.61661e-08
8.6166e-08
8.73911e-08
8.60793e-08
8.73043e-08
8.6166e-08
8.61661e-08
8.60792e-08
8.58734e-08
8.45616e-08
8.57866e-08
8.57866e-08
8.46484e-08
8.46484e-08
8.58734e-08
8.45616e-08
8.57866e-08
8.57866e-08
8.46483e-08
8.46484e-08
8.57866e-08
8.46484e-08
8.46484e-08
8.58735e-08
8.45615e-08
8.57867e-08
8.46484e-08
8.46484e-08
8.45616e-08
8.43557e-08
8.30439e-08
8.42689e-08
8.42689e-08
8.31307e-08
8.31307e-08
8.43557e-08
8.30439e-08
8.42689e-08
8.42689e-08
8.31307e-08
8.31307e-08
8.42689e-08
8.31307e-08
8.31307e-08
8.43557e-08
8.30439e-08
8.42689e-08
8.31307e-08
8.31307e-08
8.30439e-08
8.28381e-08
8.15262e-08
8.27512e-08
8.27513e-08
8.1613e-08
8.1613e-08
8.2838e-08
8.15262e-08
8.27513e-08
8.27513e-08
8.1613e-08
8.1613e-08
8.27512e-08
8.1613e-08
8.1613e-08
8.28381e-08
8.15262e-08
8.27512e-08
8.1613e-08
8.1613e-08
8.15262e-08
8.13204e-08
8.00085e-08
8.12336e-08
8.12336e-08
8.00953e-08
8.00954e-08
8.13204e-08
8.00086e-08
8.12336e-08
8.12336e-08
8.00954e-08
8.00953e-08
8.12336e-08
8.00953e-08
8.00953e-08
8.13204e-08
8.00086e-08
8.12336e-08
8.00953e-08
8.00953e-08
8.00085e-08
7.98027e-08
7.84909e-08
7.97159e-08
7.9716e-08
7.85777e-08
7.85777e-08
7.98027e-08
7.84909e-08
7.9716e-08
7.97159e-08
7.85777e-08
7.85778e-08
7.97159e-08
7.85777e-08
7.85777e-08
7.98028e-08
7.84909e-08
7.97159e-08
7.85777e-08
7.85777e-08
7.84909e-08
7.82851e-08
7.69733e-08
7.81983e-08
7.81983e-08
7.70601e-08
7.70601e-08
7.82851e-08
7.69733e-08
7.81983e-08
7.81983e-08
7.70601e-08
7.70601e-08
7.81983e-08
7.70601e-08
7.70601e-08
7.82851e-08
7.69733e-08
7.81983e-08
7.70601e-08
7.70601e-08
7.69733e-08
7.67675e-08
7.54557e-08
7.66807e-08
7.66807e-08
7.55425e-08
7.55425e-08
7.67675e-08
7.54556e-08
7.66807e-08
7.66807e-08
7.55424e-08
7.55425e-08
7.66807e-08
7.55425e-08
7.55425e-08
7.67675e-08
7.54557e-08
7.66807e-08
7.55425e-08
7.55425e-08
7.54557e-08
7.52499e-08
7.3938e-08
7.51631e-08
7.5163e-08
7.40248e-08
7.40248e-08
7.52498e-08
7.3938e-08
7.5163e-08
7.51631e-08
7.40248e-08
7.40248e-08
7.5163e-08
7.40248e-08
7.40248e-08
7.52499e-08
7.3938e-08
7.51631e-08
7.40248e-08
7.40248e-08
7.3938e-08
7.37322e-08
7.24204e-08
7.36454e-08
7.36454e-08
7.25072e-08
7.25072e-08
7.37322e-08
7.24204e-08
7.36454e-08
7.36454e-08
7.25072e-08
7.25072e-08
7.36454e-08
7.25072e-08
7.25072e-08
7.37322e-08
7.24204e-08
7.36454e-08
7.25072e-08
7.25072e-08
7.24204e-08
7.22146e-08
7.09027e-08
7.21278e-08
7.21278e-08
7.09895e-08
7.09895e-08
7.22146e-08
7.09027e-08
7.21277e-08
7.21278e-08
7.09895e-08
7.09895e-08
7.21278e-08
7.09895e-08
7.09895e-08
7.22146e-08
7.09027e-08
7.21278e-08
7.09895e-08
7.09895e-08
7.09027e-08
7.06969e-08
6.93851e-08
7.06101e-08
7.06101e-08
6.94718e-08
6.94719e-08
7.06969e-08
6.93851e-08
7.06101e-08
7.06101e-08
6.94718e-08
6.94719e-08
7.06101e-08
6.94719e-08
6.94719e-08
7.06969e-08
6.9385e-08
7.06101e-08
6.94718e-08
6.94719e-08
6.93851e-08
6.91792e-08
6.78674e-08
6.90924e-08
6.90924e-08
6.79542e-08
6.79542e-08
6.91792e-08
6.78673e-08
6.90924e-08
6.90924e-08
6.79542e-08
6.79542e-08
6.90924e-08
6.79542e-08
6.79542e-08
6.91792e-08
6.78674e-08
6.90924e-08
6.79542e-08
6.79542e-08
6.78674e-08
6.76615e-08
6.63497e-08
6.75747e-08
6.75747e-08
6.64365e-08
6.64365e-08
6.76616e-08
6.63497e-08
6.75747e-08
6.75748e-08
6.64365e-08
6.64365e-08
6.75748e-08
6.64365e-08
6.64365e-08
6.76616e-08
6.63497e-08
6.75748e-08
6.64365e-08
6.64365e-08
6.63497e-08
6.61438e-08
6.4832e-08
6.60571e-08
6.60571e-08
6.49188e-08
6.49188e-08
6.61439e-08
6.4832e-08
6.60571e-08
6.60571e-08
6.49188e-08
6.49188e-08
6.60571e-08
6.49188e-08
6.49188e-08
6.61439e-08
6.4832e-08
6.60571e-08
6.49188e-08
6.49188e-08
6.4832e-08
6.46262e-08
6.33143e-08
6.45393e-08
6.45394e-08
6.34011e-08
6.34011e-08
6.46262e-08
6.33143e-08
6.45394e-08
6.45393e-08
6.3401e-08
6.34011e-08
6.45394e-08
6.3401e-08
6.34011e-08
6.46262e-08
6.33142e-08
6.45393e-08
6.34011e-08
6.3401e-08
6.33143e-08
6.31084e-08
6.17965e-08
6.30216e-08
6.30216e-08
6.18833e-08
6.18833e-08
6.31084e-08
6.17965e-08
6.30216e-08
6.30216e-08
6.18833e-08
6.18833e-08
6.30216e-08
6.18833e-08
6.18833e-08
6.31084e-08
6.17965e-08
6.30216e-08
6.18833e-08
6.18833e-08
6.17965e-08
6.15906e-08
6.02787e-08
6.15038e-08
6.15038e-08
6.03655e-08
6.03655e-08
6.15906e-08
6.02787e-08
6.15038e-08
6.15039e-08
6.03655e-08
6.03655e-08
6.15038e-08
6.03655e-08
6.03655e-08
6.15907e-08
6.02787e-08
6.15039e-08
6.03655e-08
6.03655e-08
6.02787e-08
6.00729e-08
5.87609e-08
5.99861e-08
5.99861e-08
5.88477e-08
5.88477e-08
6.00729e-08
5.87609e-08
5.99861e-08
5.9986e-08
5.88477e-08
5.88477e-08
5.99861e-08
5.88477e-08
5.88477e-08
6.00729e-08
5.87609e-08
5.99861e-08
5.88477e-08
5.88477e-08
5.87609e-08
5.8555e-08
5.72431e-08
5.84683e-08
5.84683e-08
5.73299e-08
5.733e-08
5.85551e-08
5.72431e-08
5.84683e-08
5.84683e-08
5.73299e-08
5.73299e-08
5.84683e-08
5.73299e-08
5.733e-08
5.85551e-08
5.72431e-08
5.84683e-08
5.73299e-08
5.73299e-08
5.72431e-08
5.70373e-08
5.57254e-08
5.69505e-08
5.69505e-08
5.58121e-08
5.58121e-08
5.70373e-08
5.57253e-08
5.69505e-08
5.69505e-08
5.58121e-08
5.58121e-08
5.69505e-08
5.58121e-08
5.58121e-08
5.70373e-08
5.57253e-08
5.69505e-08
5.58121e-08
5.58121e-08
5.57253e-08
5.55195e-08
5.42076e-08
5.54327e-08
5.54327e-08
5.42943e-08
5.42944e-08
5.55195e-08
5.42075e-08
5.54327e-08
5.54327e-08
5.42944e-08
5.42944e-08
5.54327e-08
5.42944e-08
5.42943e-08
5.55195e-08
5.42076e-08
5.54327e-08
5.42944e-08
5.42944e-08
5.42075e-08
5.40017e-08
5.26898e-08
5.39149e-08
5.39149e-08
5.27766e-08
5.27766e-08
5.40017e-08
5.26898e-08
5.39149e-08
5.39149e-08
5.27766e-08
5.27766e-08
5.39149e-08
5.27766e-08
5.27766e-08
5.40017e-08
5.26898e-08
5.39149e-08
5.27766e-08
5.27766e-08
5.26898e-08
5.24839e-08
5.1172e-08
5.23971e-08
5.23971e-08
5.12588e-08
5.12588e-08
5.24839e-08
5.1172e-08
5.23971e-08
5.23971e-08
5.12588e-08
5.12588e-08
5.23971e-08
5.12588e-08
5.12588e-08
5.24839e-08
5.1172e-08
5.23971e-08
5.12588e-08
5.12588e-08
5.1172e-08
5.09661e-08
4.96542e-08
5.08793e-08
5.08793e-08
4.9741e-08
4.9741e-08
5.09661e-08
4.96542e-08
5.08794e-08
5.08793e-08
4.9741e-08
4.9741e-08
5.08794e-08
4.9741e-08
4.9741e-08
5.09661e-08
4.96542e-08
5.08793e-08
4.9741e-08
4.9741e-08
4.96541e-08
4.94483e-08
4.81364e-08
4.93615e-08
4.93615e-08
4.82232e-08
4.82232e-08
4.94483e-08
4.81363e-08
4.93615e-08
4.93615e-08
4.82232e-08
4.82232e-08
4.93615e-08
4.82232e-08
4.82232e-08
4.94484e-08
4.81364e-08
4.93615e-08
4.82232e-08
4.82232e-08
4.81364e-08
4.79306e-08
4.66186e-08
4.78437e-08
4.78437e-08
4.67054e-08
4.67054e-08
4.79305e-08
4.66186e-08
4.78437e-08
4.78437e-08
4.67054e-08
4.67054e-08
4.78437e-08
4.67054e-08
4.67054e-08
4.79305e-08
4.66186e-08
4.78437e-08
4.67054e-08
4.67054e-08
4.66186e-08
4.64127e-08
4.51009e-08
4.63259e-08
4.6326e-08
4.51876e-08
4.51876e-08
4.64128e-08
4.51008e-08
4.63259e-08
4.6326e-08
4.51876e-08
4.51877e-08
4.6326e-08
4.51876e-08
4.51876e-08
4.64128e-08
4.51008e-08
4.6326e-08
4.51876e-08
4.51876e-08
4.51008e-08
4.4895e-08
4.35831e-08
4.48082e-08
4.48082e-08
4.36699e-08
4.36699e-08
4.4895e-08
4.35831e-08
4.48082e-08
4.48082e-08
4.36699e-08
4.36699e-08
4.48082e-08
4.36699e-08
4.36699e-08
4.4895e-08
4.35831e-08
4.48082e-08
4.36699e-08
4.36699e-08
4.35831e-08
4.33772e-08
4.20654e-08
4.32904e-08
4.32904e-08
4.21522e-08
4.21521e-08
4.33772e-08
4.20653e-08
4.32904e-08
4.32905e-08
4.21521e-08
4.21522e-08
4.32904e-08
4.21522e-08
4.21521e-08
4.33773e-08
4.20654e-08
4.32905e-08
4.21521e-08
4.21522e-08
4.20653e-08
4.18595e-08
4.05476e-08
4.17727e-08
4.17727e-08
4.06344e-08
4.06344e-08
4.18595e-08
4.05476e-08
4.17727e-08
4.17727e-08
4.06344e-08
4.06344e-08
4.17727e-08
4.06344e-08
4.06344e-08
4.18595e-08
4.05476e-08
4.17727e-08
4.06344e-08
4.06344e-08
4.05476e-08
4.03417e-08
3.90298e-08
4.0255e-08
4.0255e-08
3.91166e-08
3.91166e-08
4.03418e-08
3.90299e-08
4.0255e-08
4.02549e-08
3.91166e-08
3.91166e-08
4.0255e-08
3.91166e-08
3.91166e-08
4.03418e-08
3.90298e-08
4.0255e-08
3.91167e-08
3.91166e-08
3.90298e-08
3.8824e-08
3.75121e-08
3.87372e-08
3.87372e-08
3.75989e-08
3.75989e-08
3.8824e-08
3.75121e-08
3.87372e-08
3.87372e-08
3.75989e-08
3.75989e-08
3.87372e-08
3.75989e-08
3.75989e-08
3.8824e-08
3.75121e-08
3.87372e-08
3.75989e-08
3.75989e-08
3.75121e-08
3.73062e-08
3.59943e-08
3.72194e-08
3.72194e-08
3.60811e-08
3.60811e-08
3.73062e-08
3.59943e-08
3.72194e-08
3.72194e-08
3.60811e-08
3.60811e-08
3.72194e-08
3.60811e-08
3.60811e-08
3.73062e-08
3.59943e-08
3.72194e-08
3.60811e-08
3.60811e-08
3.59943e-08
3.57885e-08
3.44765e-08
3.57017e-08
3.57016e-08
3.45633e-08
3.45633e-08
3.57885e-08
3.44766e-08
3.57016e-08
3.57017e-08
3.45633e-08
3.45633e-08
3.57016e-08
3.45633e-08
3.45633e-08
3.57885e-08
3.44766e-08
3.57016e-08
3.45633e-08
3.45633e-08
3.44765e-08
3.42707e-08
3.29588e-08
3.41839e-08
3.41839e-08
3.30456e-08
3.30456e-08
3.42707e-08
3.29588e-08
3.41839e-08
3.41839e-08
3.30456e-08
3.30456e-08
3.41839e-08
3.30456e-08
3.30456e-08
3.42707e-08
3.29588e-08
3.41839e-08
3.30456e-08
3.30456e-08
3.29588e-08
3.2753e-08
3.14411e-08
3.26662e-08
3.26662e-08
3.15279e-08
3.15279e-08
3.2753e-08
3.14411e-08
3.26662e-08
3.26662e-08
3.15279e-08
3.15279e-08
3.26662e-08
3.15279e-08
3.15279e-08
3.2753e-08
3.14411e-08
3.26662e-08
3.15279e-08
3.15279e-08
3.14411e-08
3.12353e-08
2.99234e-08
3.11485e-08
3.11485e-08
3.00102e-08
3.00102e-08
3.12353e-08
2.99234e-08
3.11485e-08
3.11485e-08
3.00102e-08
3.00102e-08
3.11485e-08
3.00102e-08
3.00102e-08
3.12353e-08
2.99234e-08
3.11485e-08
3.00102e-08
3.00102e-08
2.99234e-08
2.97176e-08
2.84057e-08
2.96308e-08
2.96307e-08
2.84925e-08
2.84925e-08
2.97176e-08
2.84057e-08
2.96307e-08
2.96308e-08
2.84925e-08
2.84925e-08
2.96307e-08
2.84925e-08
2.84925e-08
2.97176e-08
2.84057e-08
2.96308e-08
2.84925e-08
2.84925e-08
2.84057e-08
2.81999e-08
2.6888e-08
2.8113e-08
2.81131e-08
2.69748e-08
2.69748e-08
2.81998e-08
2.6888e-08
2.81131e-08
2.8113e-08
2.69748e-08
2.69748e-08
2.8113e-08
2.69748e-08
2.69748e-08
2.81999e-08
2.6888e-08
2.81131e-08
2.69748e-08
2.69748e-08
2.68879e-08
2.66822e-08
2.53703e-08
2.65953e-08
2.65954e-08
2.54571e-08
2.54571e-08
2.66822e-08
2.53703e-08
2.65954e-08
2.65953e-08
2.54571e-08
2.54571e-08
2.65953e-08
2.54571e-08
2.54571e-08
2.66822e-08
2.53703e-08
2.65953e-08
2.54571e-08
2.54571e-08
2.53703e-08
2.51644e-08
2.38526e-08
2.50776e-08
2.50776e-08
2.39394e-08
2.39394e-08
2.51644e-08
2.38526e-08
2.50776e-08
2.50776e-08
2.39394e-08
2.39394e-08
2.50776e-08
2.39394e-08
2.39394e-08
2.51645e-08
2.38526e-08
2.50776e-08
2.39394e-08
2.39394e-08
2.38526e-08
2.36468e-08
2.23349e-08
2.356e-08
2.356e-08
2.24217e-08
2.24217e-08
2.36468e-08
2.2335e-08
2.356e-08
2.356e-08
2.24217e-08
2.24217e-08
2.356e-08
2.24217e-08
2.24217e-08
2.36468e-08
2.2335e-08
2.356e-08
2.24217e-08
2.24217e-08
2.23349e-08
2.21291e-08
2.08173e-08
2.20423e-08
2.20423e-08
2.09041e-08
2.09041e-08
2.21291e-08
2.08174e-08
2.20423e-08
2.20423e-08
2.09041e-08
2.09041e-08
2.20423e-08
2.09041e-08
2.09041e-08
2.21291e-08
2.08173e-08
2.20423e-08
2.09041e-08
2.09041e-08
2.08173e-08
2.06115e-08
1.92998e-08
2.05247e-08
2.05247e-08
1.93865e-08
1.93865e-08
2.06115e-08
1.92997e-08
2.05247e-08
2.05248e-08
1.93865e-08
1.93865e-08
2.05247e-08
1.93865e-08
1.93865e-08
2.06115e-08
1.92997e-08
2.05247e-08
1.93865e-08
1.93865e-08
1.92997e-08
1.90939e-08
1.77821e-08
1.90071e-08
1.90071e-08
1.78689e-08
1.78689e-08
1.90939e-08
1.77822e-08
1.90072e-08
1.90071e-08
1.78689e-08
1.7869e-08
1.90071e-08
1.78689e-08
1.7869e-08
1.90939e-08
1.77822e-08
1.90071e-08
1.7869e-08
1.78689e-08
1.77822e-08
1.75763e-08
1.62646e-08
1.74895e-08
1.74895e-08
1.63514e-08
1.63513e-08
1.75763e-08
1.62646e-08
1.74895e-08
1.74895e-08
1.63513e-08
1.63514e-08
1.74896e-08
1.63513e-08
1.63513e-08
1.75764e-08
1.62645e-08
1.74895e-08
1.63513e-08
1.63513e-08
1.62645e-08
1.60588e-08
1.4747e-08
1.5972e-08
1.59719e-08
1.48337e-08
1.48337e-08
1.60587e-08
1.47469e-08
1.59719e-08
1.59719e-08
1.48337e-08
1.48337e-08
1.59719e-08
1.48337e-08
1.48337e-08
1.60587e-08
1.47469e-08
1.59719e-08
1.48337e-08
1.48337e-08
1.47469e-08
1.45411e-08
1.32293e-08
1.44543e-08
1.44543e-08
1.33161e-08
1.33161e-08
1.45411e-08
1.32293e-08
1.44543e-08
1.44543e-08
1.33161e-08
1.33161e-08
1.44543e-08
1.33161e-08
1.33161e-08
1.45411e-08
1.32293e-08
1.44543e-08
1.33161e-08
1.33161e-08
1.32293e-08
1.30235e-08
1.17117e-08
1.29367e-08
1.29367e-08
1.17985e-08
1.17985e-08
1.30235e-08
1.17117e-08
1.29367e-08
1.29367e-08
1.17985e-08
1.17985e-08
1.29367e-08
1.17985e-08
1.17985e-08
1.30236e-08
1.17117e-08
1.29367e-08
1.17985e-08
1.17985e-08
1.17117e-08
1.15059e-08
1.01941e-08
1.14191e-08
1.14191e-08
1.02809e-08
1.02809e-08
1.15059e-08
1.01941e-08
1.14191e-08
1.14191e-08
1.02809e-08
1.02809e-08
1.14191e-08
1.02809e-08
1.02809e-08
1.15059e-08
1.01941e-08
1.14191e-08
1.02809e-08
1.02809e-08
1.01941e-08
9.98828e-09
8.67641e-09
9.90149e-09
9.90147e-09
8.76322e-09
8.76321e-09
9.98829e-09
8.67643e-09
9.90149e-09
9.90147e-09
8.76323e-09
8.76323e-09
9.90147e-09
8.76321e-09
8.76321e-09
9.98828e-09
8.67644e-09
9.90148e-09
8.76324e-09
8.76322e-09
8.67643e-09
8.47059e-09
7.15872e-09
8.38379e-09
8.38379e-09
7.2455e-09
7.24551e-09
8.47059e-09
7.1587e-09
8.38379e-09
8.3838e-09
7.2455e-09
7.2455e-09
8.38378e-09
7.24553e-09
7.24551e-09
8.47062e-09
7.15872e-09
8.3838e-09
7.2455e-09
7.24553e-09
7.15874e-09
6.9529e-09
5.64097e-09
6.86608e-09
6.86608e-09
5.72777e-09
5.72779e-09
6.95288e-09
5.641e-09
6.86607e-09
6.86608e-09
5.72776e-09
5.72776e-09
6.86609e-09
5.72777e-09
5.72779e-09
6.9529e-09
5.64097e-09
6.8661e-09
5.72776e-09
5.72776e-09
5.64095e-09
5.43515e-09
4.12311e-09
5.34836e-09
5.34838e-09
4.20989e-09
4.20989e-09
5.43517e-09
4.1231e-09
5.34835e-09
5.34835e-09
4.20989e-09
4.20988e-09
5.34838e-09
4.20988e-09
4.20989e-09
5.43515e-09
4.1231e-09
5.34835e-09
4.20989e-09
4.20988e-09
4.12309e-09
3.91732e-09
2.60508e-09
3.83067e-09
3.83067e-09
2.69123e-09
2.69122e-09
3.9173e-09
2.60508e-09
3.83067e-09
3.83067e-09
2.69122e-09
2.69123e-09
3.83067e-09
2.69123e-09
2.69122e-09
3.91731e-09
2.60508e-09
3.83067e-09
2.69122e-09
2.69122e-09
2.60508e-09
2.39992e-09
1.09022e-09
2.31253e-09
2.31251e-09
1.18286e-09
1.18287e-09
2.39991e-09
1.09022e-09
2.3125e-09
2.31252e-09
1.18291e-09
1.18288e-09
2.31252e-09
1.18288e-09
1.18283e-09
2.39992e-09
1.09021e-09
2.31251e-09
1.18286e-09
1.18292e-09
1.09021e-09
8.80296e-10
8.1806e-10
8.18089e-10
8.80283e-10
8.18133e-10
8.18102e-10
7.78566e-10
7.78589e-10
7.78589e-10
8.18033e-10
8.80282e-10
8.18143e-10
1.47127e-07
1.47749e-07
1.47415e-07
1.47415e-07
1.49163e-07
1.48009e-07
1.50547e-07
1.47638e-07
1.49163e-07
1.48009e-07
1.47638e-07
1.50547e-07
1.48302e-07
1.51016e-07
1.51016e-07
1.44469e-07
1.45645e-07
1.45736e-07
1.44426e-07
1.45627e-07
1.44411e-07
1.44469e-07
1.45645e-07
1.45736e-07
1.44426e-07
1.45783e-07
1.45783e-07
1.45783e-07
1.43491e-07
1.43491e-07
1.43491e-07
1.43491e-07
1.4453e-07
1.45746e-07
1.45759e-07
1.44847e-07
1.45816e-07
1.44476e-07
1.44902e-07
1.45627e-07
1.44411e-07
1.4453e-07
1.45759e-07
1.45746e-07
1.44847e-07
1.45816e-07
1.44902e-07
1.44476e-07
1.45719e-07
1.45719e-07
1.44647e-07
1.44455e-07
1.44455e-07
1.42035e-07
1.42842e-07
1.42862e-07
1.42021e-07
1.42836e-07
1.42016e-07
1.42035e-07
1.42842e-07
1.42862e-07
1.42021e-07
1.4286e-07
1.4286e-07
1.4286e-07