/*--------------------------------*- C++ -*----------------------------------*\
| =========                 |                                                 |
| \\      /  F ield         | OpenFOAM: The Open Source CFD Toolbox           |
|  \\    /   O peration     | Version:  v2012                                 |
|   \\  /    A nd           | Website:  www.openfoam.com                      |
|    \\/     M anipulation  |                                                 |
\*---------------------------------------------------------------------------*/
FoamFile
{
    version     2.0;
    format      ascii;
    class       volScalarField;
    location    "87500";
    object      p;
}
// * * * * * * * * * * * * * * * * * * * * * * * * * * * * * * * * * * * * * //

dimensions      [0 2 -2 0 0 0 0];


internalField   nonuniform List<scalar> 
169728
(
1.27536e-07
1.2747e-07
1.2747e-07
1.27638e-07
1.24612e-07
1.24536e-07
1.24536e-07
1.24667e-07
1.2245e-07
1.22425e-07
1.22425e-07
1.22534e-07
1.20617e-07
1.2061e-07
1.2061e-07
1.20706e-07
1.18956e-07
1.18956e-07
1.18956e-07
1.19046e-07
1.17399e-07
1.17401e-07
1.17401e-07
1.17486e-07
1.15909e-07
1.15912e-07
1.15912e-07
1.15994e-07
1.14466e-07
1.14468e-07
1.14468e-07
1.14549e-07
1.13057e-07
1.13058e-07
1.13058e-07
1.13137e-07
1.11673e-07
1.11674e-07
1.11674e-07
1.11752e-07
1.10307e-07
1.10308e-07
1.10308e-07
1.10385e-07
1.08956e-07
1.08956e-07
1.08956e-07
1.09033e-07
1.07616e-07
1.07616e-07
1.07616e-07
1.07692e-07
1.06284e-07
1.06284e-07
1.06284e-07
1.06359e-07
1.04958e-07
1.04959e-07
1.04959e-07
1.05034e-07
1.03638e-07
1.03638e-07
1.03638e-07
1.03713e-07
1.02322e-07
1.02322e-07
1.02322e-07
1.02397e-07
1.01009e-07
1.01009e-07
1.01009e-07
1.01083e-07
9.96977e-08
9.96977e-08
9.96977e-08
9.97721e-08
9.83886e-08
9.83886e-08
9.83886e-08
9.84629e-08
9.70809e-08
9.70809e-08
9.70809e-08
9.71551e-08
9.57744e-08
9.57743e-08
9.57743e-08
9.58485e-08
9.44687e-08
9.44685e-08
9.44686e-08
9.45427e-08
9.31636e-08
9.31635e-08
9.31635e-08
9.32377e-08
9.18591e-08
9.1859e-08
9.1859e-08
9.19331e-08
9.0555e-08
9.05549e-08
9.05549e-08
9.0629e-08
8.92513e-08
8.92511e-08
8.92511e-08
8.93252e-08
8.79477e-08
8.79475e-08
8.79476e-08
8.80216e-08
8.66444e-08
8.66442e-08
8.66442e-08
8.67182e-08
8.53411e-08
8.5341e-08
8.5341e-08
8.54151e-08
8.40381e-08
8.4038e-08
8.4038e-08
8.4112e-08
8.27351e-08
8.2735e-08
8.2735e-08
8.28091e-08
8.14323e-08
8.14321e-08
8.14321e-08
8.15061e-08
8.01294e-08
8.01293e-08
8.01293e-08
8.02034e-08
7.88266e-08
7.88265e-08
7.88265e-08
7.89005e-08
7.75239e-08
7.75237e-08
7.75237e-08
7.75977e-08
7.62211e-08
7.62209e-08
7.62209e-08
7.62949e-08
7.49183e-08
7.49181e-08
7.49181e-08
7.49921e-08
7.36155e-08
7.36154e-08
7.36153e-08
7.36894e-08
7.23127e-08
7.23126e-08
7.23126e-08
7.23866e-08
7.10099e-08
7.10098e-08
7.10098e-08
7.10838e-08
6.97071e-08
6.9707e-08
6.9707e-08
6.9781e-08
6.84043e-08
6.84042e-08
6.84042e-08
6.84782e-08
6.71016e-08
6.71014e-08
6.71014e-08
6.71754e-08
6.57988e-08
6.57986e-08
6.57986e-08
6.58727e-08
6.4496e-08
6.44958e-08
6.44958e-08
6.45699e-08
6.31932e-08
6.3193e-08
6.3193e-08
6.32671e-08
6.18904e-08
6.18902e-08
6.18902e-08
6.19642e-08
6.05876e-08
6.05874e-08
6.05874e-08
6.06614e-08
5.92848e-08
5.92846e-08
5.92846e-08
5.93587e-08
5.7982e-08
5.79818e-08
5.79819e-08
5.80559e-08
5.66792e-08
5.66791e-08
5.66791e-08
5.67531e-08
5.53764e-08
5.53762e-08
5.53763e-08
5.54503e-08
5.40736e-08
5.40735e-08
5.40735e-08
5.41475e-08
5.27708e-08
5.27707e-08
5.27707e-08
5.28447e-08
5.14681e-08
5.14679e-08
5.14679e-08
5.15419e-08
5.01653e-08
5.01651e-08
5.01651e-08
5.02391e-08
4.88625e-08
4.88623e-08
4.88623e-08
4.89364e-08
4.75597e-08
4.75595e-08
4.75595e-08
4.76336e-08
4.62569e-08
4.62568e-08
4.62568e-08
4.63308e-08
4.49541e-08
4.4954e-08
4.4954e-08
4.5028e-08
4.36514e-08
4.36512e-08
4.36512e-08
4.37253e-08
4.23486e-08
4.23484e-08
4.23484e-08
4.24224e-08
4.10458e-08
4.10456e-08
4.10456e-08
4.11197e-08
3.9743e-08
3.97429e-08
3.97428e-08
3.98169e-08
3.84402e-08
3.844e-08
3.84401e-08
3.85141e-08
3.71374e-08
3.71373e-08
3.71373e-08
3.72113e-08
3.58346e-08
3.58345e-08
3.58345e-08
3.59085e-08
3.45318e-08
3.45317e-08
3.45317e-08
3.46057e-08
3.3229e-08
3.32289e-08
3.32289e-08
3.33029e-08
3.19263e-08
3.19261e-08
3.19261e-08
3.20001e-08
3.06235e-08
3.06233e-08
3.06233e-08
3.06973e-08
2.93207e-08
2.93205e-08
2.93205e-08
2.93945e-08
2.80178e-08
2.80177e-08
2.80177e-08
2.80917e-08
2.6715e-08
2.67149e-08
2.67149e-08
2.67889e-08
2.54122e-08
2.54121e-08
2.54121e-08
2.54861e-08
2.41094e-08
2.41093e-08
2.41093e-08
2.41833e-08
2.28067e-08
2.28065e-08
2.28065e-08
2.28805e-08
2.15039e-08
2.15037e-08
2.15037e-08
2.15777e-08
2.02011e-08
2.02009e-08
2.02009e-08
2.0275e-08
1.88983e-08
1.88981e-08
1.88981e-08
1.89722e-08
1.75955e-08
1.75953e-08
1.75953e-08
1.76694e-08
1.62927e-08
1.62925e-08
1.62925e-08
1.63666e-08
1.49899e-08
1.49897e-08
1.49897e-08
1.50638e-08
1.36871e-08
1.36869e-08
1.36869e-08
1.3761e-08
1.23843e-08
1.23841e-08
1.23841e-08
1.24582e-08
1.10815e-08
1.10813e-08
1.10814e-08
1.11554e-08
9.77871e-09
9.77852e-09
9.77852e-09
9.85257e-09
8.47593e-09
8.47573e-09
8.47573e-09
8.54976e-09
7.17311e-09
7.17295e-09
7.17296e-09
7.24698e-09
5.87034e-09
5.87016e-09
5.87016e-09
5.94418e-09
4.56758e-09
4.56743e-09
4.56741e-09
4.6413e-09
3.26491e-09
3.26475e-09
3.26475e-09
3.33842e-09
1.96351e-09
1.96181e-09
1.9618e-09
2.03618e-09
6.58919e-10
6.84126e-10
6.8412e-10
7.31147e-10
1.28198e-07
1.28417e-07
1.28417e-07
1.28198e-07
1.28417e-07
1.28417e-07
1.28363e-07
1.28363e-07
1.28363e-07
1.28363e-07
1.28417e-07
1.28417e-07
1.28198e-07
1.28417e-07
1.28417e-07
1.28198e-07
1.27638e-07
1.25007e-07
1.2747e-07
1.2747e-07
1.25148e-07
1.25148e-07
1.27638e-07
1.25007e-07
1.2747e-07
1.2747e-07
1.25148e-07
1.25148e-07
1.2747e-07
1.25148e-07
1.25148e-07
1.27638e-07
1.25007e-07
1.2747e-07
1.25148e-07
1.25148e-07
1.25007e-07
1.24667e-07
1.22805e-07
1.24536e-07
1.24536e-07
1.22917e-07
1.22917e-07
1.24667e-07
1.22805e-07
1.24536e-07
1.24536e-07
1.22917e-07
1.22917e-07
1.24536e-07
1.22917e-07
1.22917e-07
1.24667e-07
1.22805e-07
1.24536e-07
1.22917e-07
1.22917e-07
1.22805e-07
1.22534e-07
1.20943e-07
1.22425e-07
1.22425e-07
1.21045e-07
1.21045e-07
1.22534e-07
1.20943e-07
1.22425e-07
1.22425e-07
1.21045e-07
1.21045e-07
1.22425e-07
1.21045e-07
1.21045e-07
1.22534e-07
1.20943e-07
1.22425e-07
1.21045e-07
1.21045e-07
1.20943e-07
1.20706e-07
1.19264e-07
1.2061e-07
1.2061e-07
1.19358e-07
1.19358e-07
1.20706e-07
1.19264e-07
1.2061e-07
1.2061e-07
1.19358e-07
1.19359e-07
1.2061e-07
1.19359e-07
1.19358e-07
1.20706e-07
1.19264e-07
1.2061e-07
1.19358e-07
1.19359e-07
1.19264e-07
1.19046e-07
1.17693e-07
1.18956e-07
1.18956e-07
1.17783e-07
1.17783e-07
1.19046e-07
1.17693e-07
1.18956e-07
1.18956e-07
1.17783e-07
1.17783e-07
1.18956e-07
1.17783e-07
1.17783e-07
1.19046e-07
1.17693e-07
1.18956e-07
1.17783e-07
1.17783e-07
1.17693e-07
1.17486e-07
1.16193e-07
1.17401e-07
1.17401e-07
1.16279e-07
1.16279e-07
1.17486e-07
1.16193e-07
1.17401e-07
1.17401e-07
1.16279e-07
1.16279e-07
1.17401e-07
1.16279e-07
1.16279e-07
1.17486e-07
1.16193e-07
1.17401e-07
1.16279e-07
1.16279e-07
1.16193e-07
1.15994e-07
1.14742e-07
1.15912e-07
1.15912e-07
1.14826e-07
1.14826e-07
1.15994e-07
1.14743e-07
1.15912e-07
1.15912e-07
1.14826e-07
1.14826e-07
1.15912e-07
1.14826e-07
1.14826e-07
1.15994e-07
1.14743e-07
1.15912e-07
1.14826e-07
1.14826e-07
1.14743e-07
1.14549e-07
1.13327e-07
1.14468e-07
1.14468e-07
1.13408e-07
1.13408e-07
1.14549e-07
1.13327e-07
1.14468e-07
1.14468e-07
1.13408e-07
1.13408e-07
1.14468e-07
1.13408e-07
1.13408e-07
1.14549e-07
1.13327e-07
1.14468e-07
1.13408e-07
1.13408e-07
1.13327e-07
1.13137e-07
1.11939e-07
1.13058e-07
1.13058e-07
1.12018e-07
1.12018e-07
1.13137e-07
1.11939e-07
1.13058e-07
1.13058e-07
1.12018e-07
1.12018e-07
1.13058e-07
1.12018e-07
1.12018e-07
1.13137e-07
1.11939e-07
1.13058e-07
1.12018e-07
1.12018e-07
1.11939e-07
1.11752e-07
1.1057e-07
1.11674e-07
1.11674e-07
1.10648e-07
1.10648e-07
1.11751e-07
1.1057e-07
1.11674e-07
1.11674e-07
1.10648e-07
1.10648e-07
1.11674e-07
1.10648e-07
1.10648e-07
1.11752e-07
1.1057e-07
1.11674e-07
1.10648e-07
1.10648e-07
1.1057e-07
1.10385e-07
1.09216e-07
1.10308e-07
1.10308e-07
1.09293e-07
1.09293e-07
1.10385e-07
1.09216e-07
1.10308e-07
1.10308e-07
1.09293e-07
1.09293e-07
1.10308e-07
1.09293e-07
1.09293e-07
1.10385e-07
1.09216e-07
1.10308e-07
1.09293e-07
1.09293e-07
1.09216e-07
1.09033e-07
1.07874e-07
1.08956e-07
1.08956e-07
1.0795e-07
1.0795e-07
1.09033e-07
1.07874e-07
1.08956e-07
1.08956e-07
1.0795e-07
1.0795e-07
1.08956e-07
1.0795e-07
1.0795e-07
1.09033e-07
1.07874e-07
1.08956e-07
1.0795e-07
1.0795e-07
1.07874e-07
1.07692e-07
1.06541e-07
1.07616e-07
1.07616e-07
1.06616e-07
1.06616e-07
1.07692e-07
1.06541e-07
1.07616e-07
1.07616e-07
1.06616e-07
1.06616e-07
1.07616e-07
1.06616e-07
1.06616e-07
1.07692e-07
1.06541e-07
1.07616e-07
1.06616e-07
1.06616e-07
1.06541e-07
1.06359e-07
1.05214e-07
1.06284e-07
1.06284e-07
1.05289e-07
1.05289e-07
1.06359e-07
1.05214e-07
1.06284e-07
1.06284e-07
1.05289e-07
1.05289e-07
1.06284e-07
1.05289e-07
1.05289e-07
1.06359e-07
1.05214e-07
1.06284e-07
1.05289e-07
1.05289e-07
1.05214e-07
1.05034e-07
1.03893e-07
1.04959e-07
1.04959e-07
1.03968e-07
1.03968e-07
1.05034e-07
1.03893e-07
1.04959e-07
1.04959e-07
1.03968e-07
1.03968e-07
1.04959e-07
1.03968e-07
1.03968e-07
1.05034e-07
1.03893e-07
1.04959e-07
1.03968e-07
1.03968e-07
1.03893e-07
1.03713e-07
1.02576e-07
1.03638e-07
1.03638e-07
1.02651e-07
1.02651e-07
1.03713e-07
1.02576e-07
1.03638e-07
1.03638e-07
1.02651e-07
1.02651e-07
1.03638e-07
1.02651e-07
1.02651e-07
1.03713e-07
1.02576e-07
1.03638e-07
1.02651e-07
1.02651e-07
1.02576e-07
1.02397e-07
1.01262e-07
1.02322e-07
1.02322e-07
1.01337e-07
1.01337e-07
1.02397e-07
1.01262e-07
1.02322e-07
1.02322e-07
1.01337e-07
1.01337e-07
1.02322e-07
1.01337e-07
1.01337e-07
1.02397e-07
1.01262e-07
1.02322e-07
1.01337e-07
1.01337e-07
1.01262e-07
1.01083e-07
9.99507e-08
1.01009e-07
1.01009e-07
1.00025e-07
1.00025e-07
1.01083e-07
9.99507e-08
1.01009e-07
1.01009e-07
1.00025e-07
1.00025e-07
1.01009e-07
1.00025e-07
1.00025e-07
1.01083e-07
9.99508e-08
1.01009e-07
1.00025e-07
1.00025e-07
9.99507e-08
9.97721e-08
9.86413e-08
9.96977e-08
9.96977e-08
9.87157e-08
9.87157e-08
9.97721e-08
9.86413e-08
9.96977e-08
9.96977e-08
9.87157e-08
9.87157e-08
9.96977e-08
9.87157e-08
9.87157e-08
9.97721e-08
9.86413e-08
9.96977e-08
9.87157e-08
9.87157e-08
9.86413e-08
9.84629e-08
9.73334e-08
9.83886e-08
9.83886e-08
9.74077e-08
9.74077e-08
9.84629e-08
9.73334e-08
9.83886e-08
9.83886e-08
9.74077e-08
9.74077e-08
9.83886e-08
9.74077e-08
9.74077e-08
9.84629e-08
9.73334e-08
9.83886e-08
9.74077e-08
9.74077e-08
9.73334e-08
9.71551e-08
9.60266e-08
9.70809e-08
9.70809e-08
9.61008e-08
9.61008e-08
9.71551e-08
9.60266e-08
9.70809e-08
9.70809e-08
9.61008e-08
9.61009e-08
9.70809e-08
9.61008e-08
9.61008e-08
9.71551e-08
9.60266e-08
9.70809e-08
9.61009e-08
9.61009e-08
9.60266e-08
9.58485e-08
9.47208e-08
9.57743e-08
9.57743e-08
9.47949e-08
9.47949e-08
9.58485e-08
9.47207e-08
9.57743e-08
9.57743e-08
9.47949e-08
9.47949e-08
9.57743e-08
9.47949e-08
9.47949e-08
9.58485e-08
9.47208e-08
9.57743e-08
9.47949e-08
9.47949e-08
9.47207e-08
9.45427e-08
9.34156e-08
9.44686e-08
9.44686e-08
9.34897e-08
9.34897e-08
9.45427e-08
9.34156e-08
9.44686e-08
9.44686e-08
9.34897e-08
9.34897e-08
9.44686e-08
9.34897e-08
9.34897e-08
9.45427e-08
9.34156e-08
9.44686e-08
9.34897e-08
9.34897e-08
9.34156e-08
9.32376e-08
9.2111e-08
9.31635e-08
9.31635e-08
9.21851e-08
9.21851e-08
9.32377e-08
9.21109e-08
9.31635e-08
9.31635e-08
9.21851e-08
9.21851e-08
9.31635e-08
9.21851e-08
9.21851e-08
9.32376e-08
9.2111e-08
9.31635e-08
9.21851e-08
9.21851e-08
9.2111e-08
9.19331e-08
9.08068e-08
9.1859e-08
9.1859e-08
9.08809e-08
9.08809e-08
9.19331e-08
9.08068e-08
9.1859e-08
9.1859e-08
9.08809e-08
9.08809e-08
9.1859e-08
9.08809e-08
9.08809e-08
9.19331e-08
9.08068e-08
9.1859e-08
9.08809e-08
9.08809e-08
9.08068e-08
9.06289e-08
8.9503e-08
9.05549e-08
9.05549e-08
8.9577e-08
8.9577e-08
9.0629e-08
8.95029e-08
9.05549e-08
9.05549e-08
8.9577e-08
8.9577e-08
9.05549e-08
8.9577e-08
8.9577e-08
9.0629e-08
8.95029e-08
9.05549e-08
8.9577e-08
8.9577e-08
8.9503e-08
8.93252e-08
8.81994e-08
8.92511e-08
8.92511e-08
8.82734e-08
8.82734e-08
8.93251e-08
8.81994e-08
8.92511e-08
8.92511e-08
8.82734e-08
8.82734e-08
8.92511e-08
8.82734e-08
8.82734e-08
8.93252e-08
8.81994e-08
8.92511e-08
8.82734e-08
8.82734e-08
8.81994e-08
8.80216e-08
8.6896e-08
8.79476e-08
8.79476e-08
8.697e-08
8.697e-08
8.80216e-08
8.6896e-08
8.79476e-08
8.79476e-08
8.697e-08
8.697e-08
8.79476e-08
8.697e-08
8.697e-08
8.80216e-08
8.6896e-08
8.79476e-08
8.697e-08
8.697e-08
8.6896e-08
8.67183e-08
8.55928e-08
8.66442e-08
8.66442e-08
8.56668e-08
8.56668e-08
8.67183e-08
8.55928e-08
8.66442e-08
8.66442e-08
8.56668e-08
8.56668e-08
8.66442e-08
8.56668e-08
8.56668e-08
8.67183e-08
8.55928e-08
8.66442e-08
8.56668e-08
8.56668e-08
8.55928e-08
8.5415e-08
8.42897e-08
8.5341e-08
8.5341e-08
8.43637e-08
8.43637e-08
8.54151e-08
8.42897e-08
8.5341e-08
8.5341e-08
8.43637e-08
8.43637e-08
8.5341e-08
8.43637e-08
8.43637e-08
8.54151e-08
8.42897e-08
8.5341e-08
8.43637e-08
8.43637e-08
8.42897e-08
8.4112e-08
8.29867e-08
8.4038e-08
8.4038e-08
8.30607e-08
8.30608e-08
8.4112e-08
8.29867e-08
8.40379e-08
8.4038e-08
8.30608e-08
8.30607e-08
8.40379e-08
8.30607e-08
8.30608e-08
8.4112e-08
8.29867e-08
8.40379e-08
8.30607e-08
8.30607e-08
8.29867e-08
8.2809e-08
8.16838e-08
8.2735e-08
8.2735e-08
8.17578e-08
8.17578e-08
8.2809e-08
8.16838e-08
8.2735e-08
8.2735e-08
8.17578e-08
8.17578e-08
8.2735e-08
8.17578e-08
8.17578e-08
8.2809e-08
8.16838e-08
8.2735e-08
8.17578e-08
8.17578e-08
8.16838e-08
8.15061e-08
8.03809e-08
8.14321e-08
8.14321e-08
8.0455e-08
8.0455e-08
8.15061e-08
8.0381e-08
8.14321e-08
8.14321e-08
8.0455e-08
8.0455e-08
8.14321e-08
8.0455e-08
8.0455e-08
8.15062e-08
8.0381e-08
8.14321e-08
8.0455e-08
8.0455e-08
8.0381e-08
8.02033e-08
7.90782e-08
8.01293e-08
8.01293e-08
7.91522e-08
7.91522e-08
8.02033e-08
7.90782e-08
8.01293e-08
8.01293e-08
7.91522e-08
7.91522e-08
8.01293e-08
7.91522e-08
7.91522e-08
8.02033e-08
7.90782e-08
8.01293e-08
7.91522e-08
7.91522e-08
7.90782e-08
7.89005e-08
7.77754e-08
7.88265e-08
7.88265e-08
7.78494e-08
7.78494e-08
7.89005e-08
7.77754e-08
7.88265e-08
7.88265e-08
7.78494e-08
7.78494e-08
7.88265e-08
7.78494e-08
7.78494e-08
7.89005e-08
7.77754e-08
7.88265e-08
7.78494e-08
7.78494e-08
7.77754e-08
7.75977e-08
7.64726e-08
7.75237e-08
7.75237e-08
7.65466e-08
7.65466e-08
7.75977e-08
7.64726e-08
7.75237e-08
7.75237e-08
7.65466e-08
7.65466e-08
7.75237e-08
7.65466e-08
7.65466e-08
7.75977e-08
7.64726e-08
7.75237e-08
7.65466e-08
7.65466e-08
7.64726e-08
7.62949e-08
7.51698e-08
7.62209e-08
7.62209e-08
7.52438e-08
7.52438e-08
7.62949e-08
7.51698e-08
7.62209e-08
7.62209e-08
7.52438e-08
7.52438e-08
7.62209e-08
7.52438e-08
7.52438e-08
7.62949e-08
7.51698e-08
7.62209e-08
7.52438e-08
7.52438e-08
7.51698e-08
7.49922e-08
7.3867e-08
7.49181e-08
7.49181e-08
7.3941e-08
7.3941e-08
7.49921e-08
7.3867e-08
7.49181e-08
7.49181e-08
7.3941e-08
7.3941e-08
7.49181e-08
7.3941e-08
7.3941e-08
7.49921e-08
7.3867e-08
7.49181e-08
7.3941e-08
7.3941e-08
7.3867e-08
7.36893e-08
7.25643e-08
7.36153e-08
7.36153e-08
7.26383e-08
7.26383e-08
7.36894e-08
7.25643e-08
7.36153e-08
7.36154e-08
7.26382e-08
7.26383e-08
7.36153e-08
7.26383e-08
7.26383e-08
7.36894e-08
7.25642e-08
7.36154e-08
7.26383e-08
7.26383e-08
7.25643e-08
7.23866e-08
7.12615e-08
7.23126e-08
7.23126e-08
7.13355e-08
7.13355e-08
7.23866e-08
7.12615e-08
7.23126e-08
7.23126e-08
7.13355e-08
7.13355e-08
7.23126e-08
7.13355e-08
7.13355e-08
7.23866e-08
7.12615e-08
7.23126e-08
7.13355e-08
7.13355e-08
7.12615e-08
7.10838e-08
6.99587e-08
7.10098e-08
7.10098e-08
7.00327e-08
7.00327e-08
7.10838e-08
6.99587e-08
7.10098e-08
7.10098e-08
7.00327e-08
7.00327e-08
7.10098e-08
7.00327e-08
7.00327e-08
7.10838e-08
6.99586e-08
7.10098e-08
7.00327e-08
7.00327e-08
6.99587e-08
6.9781e-08
6.86559e-08
6.9707e-08
6.9707e-08
6.87299e-08
6.87299e-08
6.9781e-08
6.86559e-08
6.9707e-08
6.9707e-08
6.87299e-08
6.87299e-08
6.9707e-08
6.87299e-08
6.87299e-08
6.9781e-08
6.86559e-08
6.9707e-08
6.87299e-08
6.87299e-08
6.86558e-08
6.84782e-08
6.73531e-08
6.84042e-08
6.84042e-08
6.74271e-08
6.74271e-08
6.84782e-08
6.73531e-08
6.84042e-08
6.84042e-08
6.74271e-08
6.74271e-08
6.84042e-08
6.74271e-08
6.74271e-08
6.84783e-08
6.73531e-08
6.84042e-08
6.74271e-08
6.74271e-08
6.73531e-08
6.71754e-08
6.60503e-08
6.71014e-08
6.71014e-08
6.61243e-08
6.61243e-08
6.71754e-08
6.60503e-08
6.71014e-08
6.71014e-08
6.61243e-08
6.61243e-08
6.71014e-08
6.61243e-08
6.61243e-08
6.71754e-08
6.60503e-08
6.71014e-08
6.61243e-08
6.61243e-08
6.60503e-08
6.58726e-08
6.47475e-08
6.57986e-08
6.57986e-08
6.48215e-08
6.48215e-08
6.58727e-08
6.47475e-08
6.57986e-08
6.57986e-08
6.48215e-08
6.48215e-08
6.57986e-08
6.48215e-08
6.48215e-08
6.58726e-08
6.47475e-08
6.57986e-08
6.48215e-08
6.48215e-08
6.47476e-08
6.45699e-08
6.34447e-08
6.44958e-08
6.44958e-08
6.35187e-08
6.35187e-08
6.45698e-08
6.34447e-08
6.44958e-08
6.44958e-08
6.35187e-08
6.35187e-08
6.44958e-08
6.35187e-08
6.35187e-08
6.45698e-08
6.34447e-08
6.44959e-08
6.35187e-08
6.35187e-08
6.34447e-08
6.3267e-08
6.21419e-08
6.3193e-08
6.3193e-08
6.22159e-08
6.22159e-08
6.32671e-08
6.21419e-08
6.3193e-08
6.3193e-08
6.22159e-08
6.22159e-08
6.3193e-08
6.22159e-08
6.22159e-08
6.32671e-08
6.21419e-08
6.3193e-08
6.22159e-08
6.22159e-08
6.21419e-08
6.19643e-08
6.08392e-08
6.18902e-08
6.18902e-08
6.09131e-08
6.09131e-08
6.19643e-08
6.08391e-08
6.18902e-08
6.18903e-08
6.09131e-08
6.09131e-08
6.18902e-08
6.09131e-08
6.09131e-08
6.19643e-08
6.08391e-08
6.18902e-08
6.09131e-08
6.09131e-08
6.08391e-08
6.06615e-08
5.95363e-08
6.05874e-08
6.05874e-08
5.96103e-08
5.96103e-08
6.06615e-08
5.95363e-08
6.05874e-08
6.05874e-08
5.96103e-08
5.96103e-08
6.05874e-08
5.96103e-08
5.96103e-08
6.06614e-08
5.95363e-08
6.05874e-08
5.96103e-08
5.96103e-08
5.95363e-08
5.93587e-08
5.82335e-08
5.92846e-08
5.92846e-08
5.83075e-08
5.83075e-08
5.93586e-08
5.82335e-08
5.92846e-08
5.92846e-08
5.83075e-08
5.83076e-08
5.92846e-08
5.83075e-08
5.83075e-08
5.93587e-08
5.82336e-08
5.92846e-08
5.83075e-08
5.83076e-08
5.82335e-08
5.80559e-08
5.69307e-08
5.79818e-08
5.79818e-08
5.70047e-08
5.70047e-08
5.80559e-08
5.69308e-08
5.79818e-08
5.79818e-08
5.70047e-08
5.70047e-08
5.79818e-08
5.70047e-08
5.70048e-08
5.80559e-08
5.69307e-08
5.79818e-08
5.70048e-08
5.70047e-08
5.69307e-08
5.6753e-08
5.5628e-08
5.6679e-08
5.66791e-08
5.57019e-08
5.5702e-08
5.67531e-08
5.5628e-08
5.6679e-08
5.6679e-08
5.5702e-08
5.5702e-08
5.66791e-08
5.5702e-08
5.5702e-08
5.67531e-08
5.5628e-08
5.66791e-08
5.5702e-08
5.5702e-08
5.5628e-08
5.54503e-08
5.43252e-08
5.53763e-08
5.53763e-08
5.43992e-08
5.43992e-08
5.54503e-08
5.43252e-08
5.53763e-08
5.53763e-08
5.43992e-08
5.43992e-08
5.53763e-08
5.43992e-08
5.43992e-08
5.54503e-08
5.43251e-08
5.53763e-08
5.43992e-08
5.43992e-08
5.43252e-08
5.41475e-08
5.30224e-08
5.40735e-08
5.40735e-08
5.30964e-08
5.30964e-08
5.41475e-08
5.30224e-08
5.40735e-08
5.40735e-08
5.30964e-08
5.30964e-08
5.40735e-08
5.30964e-08
5.30964e-08
5.41475e-08
5.30224e-08
5.40735e-08
5.30963e-08
5.30964e-08
5.30224e-08
5.28447e-08
5.17196e-08
5.27707e-08
5.27707e-08
5.17936e-08
5.17936e-08
5.28447e-08
5.17196e-08
5.27707e-08
5.27707e-08
5.17936e-08
5.17936e-08
5.27707e-08
5.17936e-08
5.17936e-08
5.28447e-08
5.17196e-08
5.27707e-08
5.17936e-08
5.17936e-08
5.17196e-08
5.15419e-08
5.04168e-08
5.14679e-08
5.14679e-08
5.04908e-08
5.04908e-08
5.15419e-08
5.04168e-08
5.14679e-08
5.14679e-08
5.04908e-08
5.04908e-08
5.14679e-08
5.04908e-08
5.04908e-08
5.15419e-08
5.04168e-08
5.14679e-08
5.04908e-08
5.04908e-08
5.04168e-08
5.02391e-08
4.9114e-08
5.01651e-08
5.01651e-08
4.9188e-08
4.9188e-08
5.02391e-08
4.9114e-08
5.01651e-08
5.01651e-08
4.9188e-08
4.9188e-08
5.01651e-08
4.9188e-08
4.9188e-08
5.02392e-08
4.9114e-08
5.01651e-08
4.9188e-08
4.9188e-08
4.9114e-08
4.89363e-08
4.78112e-08
4.88623e-08
4.88623e-08
4.78852e-08
4.78852e-08
4.89364e-08
4.78112e-08
4.88623e-08
4.88623e-08
4.78852e-08
4.78852e-08
4.88623e-08
4.78852e-08
4.78852e-08
4.89363e-08
4.78112e-08
4.88623e-08
4.78852e-08
4.78852e-08
4.78112e-08
4.76336e-08
4.65085e-08
4.75596e-08
4.75595e-08
4.65824e-08
4.65825e-08
4.76336e-08
4.65084e-08
4.75595e-08
4.75595e-08
4.65824e-08
4.65825e-08
4.75595e-08
4.65825e-08
4.65825e-08
4.76335e-08
4.65085e-08
4.75595e-08
4.65825e-08
4.65825e-08
4.65085e-08
4.63308e-08
4.52057e-08
4.62568e-08
4.62568e-08
4.52797e-08
4.52797e-08
4.63308e-08
4.52057e-08
4.62568e-08
4.62568e-08
4.52797e-08
4.52797e-08
4.62568e-08
4.52797e-08
4.52797e-08
4.63308e-08
4.52057e-08
4.62568e-08
4.52797e-08
4.52797e-08
4.52057e-08
4.5028e-08
4.39029e-08
4.4954e-08
4.4954e-08
4.39769e-08
4.39769e-08
4.5028e-08
4.39029e-08
4.4954e-08
4.4954e-08
4.39769e-08
4.39769e-08
4.4954e-08
4.39769e-08
4.39769e-08
4.5028e-08
4.39029e-08
4.4954e-08
4.39769e-08
4.39769e-08
4.39029e-08
4.37253e-08
4.26001e-08
4.36512e-08
4.36512e-08
4.26741e-08
4.26741e-08
4.37252e-08
4.26002e-08
4.36512e-08
4.36512e-08
4.26741e-08
4.26741e-08
4.36512e-08
4.26741e-08
4.26741e-08
4.37252e-08
4.26001e-08
4.36512e-08
4.26741e-08
4.26741e-08
4.26001e-08
4.24224e-08
4.12974e-08
4.23484e-08
4.23484e-08
4.13714e-08
4.13713e-08
4.24225e-08
4.12973e-08
4.23484e-08
4.23484e-08
4.13713e-08
4.13714e-08
4.23484e-08
4.13713e-08
4.13713e-08
4.24225e-08
4.12973e-08
4.23484e-08
4.13713e-08
4.13713e-08
4.12973e-08
4.11197e-08
3.99945e-08
4.10457e-08
4.10456e-08
4.00685e-08
4.00686e-08
4.11196e-08
3.99946e-08
4.10456e-08
4.10456e-08
4.00685e-08
4.00685e-08
4.10456e-08
4.00685e-08
4.00686e-08
4.11197e-08
3.99946e-08
4.10456e-08
4.00686e-08
4.00686e-08
3.99945e-08
3.98169e-08
3.86918e-08
3.97428e-08
3.97429e-08
3.87658e-08
3.87657e-08
3.98169e-08
3.86917e-08
3.97428e-08
3.97429e-08
3.87658e-08
3.87658e-08
3.97429e-08
3.87657e-08
3.87658e-08
3.98169e-08
3.86918e-08
3.97429e-08
3.87658e-08
3.87658e-08
3.86917e-08
3.85141e-08
3.73889e-08
3.84401e-08
3.844e-08
3.74629e-08
3.7463e-08
3.85141e-08
3.7389e-08
3.84401e-08
3.84401e-08
3.7463e-08
3.7463e-08
3.84401e-08
3.7463e-08
3.7463e-08
3.85141e-08
3.7389e-08
3.844e-08
3.7463e-08
3.7463e-08
3.7389e-08
3.72113e-08
3.60862e-08
3.71372e-08
3.71373e-08
3.61602e-08
3.61601e-08
3.72113e-08
3.60861e-08
3.71372e-08
3.71373e-08
3.61601e-08
3.61602e-08
3.71373e-08
3.61602e-08
3.61602e-08
3.72113e-08
3.60862e-08
3.71373e-08
3.61602e-08
3.61602e-08
3.60862e-08
3.59085e-08
3.47834e-08
3.58345e-08
3.58344e-08
3.48574e-08
3.48574e-08
3.59085e-08
3.47834e-08
3.58345e-08
3.58345e-08
3.48574e-08
3.48573e-08
3.58345e-08
3.48574e-08
3.48574e-08
3.59085e-08
3.47834e-08
3.58345e-08
3.48574e-08
3.48574e-08
3.47833e-08
3.46057e-08
3.34806e-08
3.45317e-08
3.45317e-08
3.35546e-08
3.35546e-08
3.46057e-08
3.34806e-08
3.45317e-08
3.45317e-08
3.35546e-08
3.35546e-08
3.45317e-08
3.35546e-08
3.35546e-08
3.46057e-08
3.34806e-08
3.45317e-08
3.35546e-08
3.35546e-08
3.34806e-08
3.33029e-08
3.21778e-08
3.32289e-08
3.32289e-08
3.22518e-08
3.22518e-08
3.33029e-08
3.21778e-08
3.32289e-08
3.32289e-08
3.22518e-08
3.22518e-08
3.32289e-08
3.22518e-08
3.22518e-08
3.33029e-08
3.21778e-08
3.32289e-08
3.22518e-08
3.22518e-08
3.21778e-08
3.20001e-08
3.0875e-08
3.19261e-08
3.19261e-08
3.0949e-08
3.0949e-08
3.20001e-08
3.0875e-08
3.19261e-08
3.19261e-08
3.0949e-08
3.0949e-08
3.19261e-08
3.0949e-08
3.0949e-08
3.20001e-08
3.0875e-08
3.19261e-08
3.0949e-08
3.0949e-08
3.0875e-08
3.06973e-08
2.95722e-08
3.06233e-08
3.06233e-08
2.96462e-08
2.96462e-08
3.06973e-08
2.95722e-08
3.06233e-08
3.06233e-08
2.96462e-08
2.96462e-08
3.06233e-08
2.96462e-08
2.96462e-08
3.06973e-08
2.95722e-08
3.06233e-08
2.96462e-08
2.96462e-08
2.95722e-08
2.93945e-08
2.82694e-08
2.93205e-08
2.93205e-08
2.83434e-08
2.83434e-08
2.93945e-08
2.82694e-08
2.93205e-08
2.93205e-08
2.83434e-08
2.83434e-08
2.93205e-08
2.83434e-08
2.83434e-08
2.93945e-08
2.82694e-08
2.93205e-08
2.83434e-08
2.83434e-08
2.82694e-08
2.80917e-08
2.69666e-08
2.80177e-08
2.80177e-08
2.70406e-08
2.70406e-08
2.80917e-08
2.69666e-08
2.80177e-08
2.80177e-08
2.70406e-08
2.70406e-08
2.80177e-08
2.70406e-08
2.70406e-08
2.80917e-08
2.69666e-08
2.80177e-08
2.70406e-08
2.70406e-08
2.69665e-08
2.67889e-08
2.56638e-08
2.67149e-08
2.67149e-08
2.57378e-08
2.57378e-08
2.67889e-08
2.56638e-08
2.67149e-08
2.67149e-08
2.57378e-08
2.57378e-08
2.67149e-08
2.57378e-08
2.57378e-08
2.67889e-08
2.56638e-08
2.67149e-08
2.57378e-08
2.57378e-08
2.56638e-08
2.54861e-08
2.4361e-08
2.54121e-08
2.54121e-08
2.4435e-08
2.4435e-08
2.54861e-08
2.4361e-08
2.54121e-08
2.54121e-08
2.4435e-08
2.4435e-08
2.54121e-08
2.4435e-08
2.4435e-08
2.54861e-08
2.4361e-08
2.54121e-08
2.4435e-08
2.4435e-08
2.4361e-08
2.41833e-08
2.30582e-08
2.41093e-08
2.41093e-08
2.31322e-08
2.31322e-08
2.41833e-08
2.30582e-08
2.41093e-08
2.41093e-08
2.31322e-08
2.31322e-08
2.41093e-08
2.31322e-08
2.31322e-08
2.41833e-08
2.30582e-08
2.41093e-08
2.31322e-08
2.31322e-08
2.30582e-08
2.28805e-08
2.17554e-08
2.28065e-08
2.28065e-08
2.18294e-08
2.18294e-08
2.28805e-08
2.17554e-08
2.28065e-08
2.28065e-08
2.18294e-08
2.18294e-08
2.28065e-08
2.18294e-08
2.18294e-08
2.28806e-08
2.17554e-08
2.28065e-08
2.18294e-08
2.18294e-08
2.17554e-08
2.15777e-08
2.04526e-08
2.15037e-08
2.15037e-08
2.05266e-08
2.05266e-08
2.15777e-08
2.04526e-08
2.15037e-08
2.15037e-08
2.05266e-08
2.05266e-08
2.15037e-08
2.05266e-08
2.05266e-08
2.15777e-08
2.04526e-08
2.15037e-08
2.05266e-08
2.05266e-08
2.04526e-08
2.02749e-08
1.91498e-08
2.02009e-08
2.02009e-08
1.92238e-08
1.92238e-08
2.02749e-08
1.91498e-08
2.02009e-08
2.02009e-08
1.92238e-08
1.92238e-08
2.02009e-08
1.92238e-08
1.92238e-08
2.02749e-08
1.91498e-08
2.02009e-08
1.92238e-08
1.92238e-08
1.91498e-08
1.89721e-08
1.7847e-08
1.88981e-08
1.88981e-08
1.7921e-08
1.7921e-08
1.89721e-08
1.7847e-08
1.88981e-08
1.88981e-08
1.7921e-08
1.7921e-08
1.88981e-08
1.7921e-08
1.7921e-08
1.89721e-08
1.7847e-08
1.88981e-08
1.7921e-08
1.7921e-08
1.7847e-08
1.76694e-08
1.65442e-08
1.75953e-08
1.75953e-08
1.66182e-08
1.66182e-08
1.76693e-08
1.65442e-08
1.75953e-08
1.75953e-08
1.66182e-08
1.66182e-08
1.75953e-08
1.66182e-08
1.66182e-08
1.76694e-08
1.65442e-08
1.75953e-08
1.66182e-08
1.66182e-08
1.65442e-08
1.63666e-08
1.52414e-08
1.62925e-08
1.62925e-08
1.53154e-08
1.53154e-08
1.63666e-08
1.52414e-08
1.62925e-08
1.62925e-08
1.53154e-08
1.53154e-08
1.62925e-08
1.53154e-08
1.53154e-08
1.63666e-08
1.52414e-08
1.62925e-08
1.53154e-08
1.53154e-08
1.52414e-08
1.50637e-08
1.39386e-08
1.49897e-08
1.49897e-08
1.40126e-08
1.40126e-08
1.50638e-08
1.39386e-08
1.49897e-08
1.49897e-08
1.40126e-08
1.40126e-08
1.49897e-08
1.40126e-08
1.40126e-08
1.50638e-08
1.39386e-08
1.49897e-08
1.40126e-08
1.40126e-08
1.39386e-08
1.3761e-08
1.26358e-08
1.36869e-08
1.36869e-08
1.27098e-08
1.27098e-08
1.3761e-08
1.26358e-08
1.36869e-08
1.36869e-08
1.27098e-08
1.27098e-08
1.36869e-08
1.27098e-08
1.27098e-08
1.37609e-08
1.26358e-08
1.36869e-08
1.27098e-08
1.27098e-08
1.26358e-08
1.24582e-08
1.1333e-08
1.23841e-08
1.23841e-08
1.1407e-08
1.1407e-08
1.24582e-08
1.1333e-08
1.23841e-08
1.23841e-08
1.1407e-08
1.1407e-08
1.23841e-08
1.1407e-08
1.1407e-08
1.24582e-08
1.13331e-08
1.23841e-08
1.14071e-08
1.1407e-08
1.1333e-08
1.11553e-08
1.00302e-08
1.10813e-08
1.10813e-08
1.01042e-08
1.01042e-08
1.11554e-08
1.00302e-08
1.10813e-08
1.10813e-08
1.01042e-08
1.01042e-08
1.10813e-08
1.01042e-08
1.01042e-08
1.11554e-08
1.00302e-08
1.10813e-08
1.01042e-08
1.01042e-08
1.00302e-08
9.85257e-09
8.72746e-09
9.77853e-09
9.77852e-09
8.80145e-09
8.80142e-09
9.85256e-09
8.72744e-09
9.77852e-09
9.77853e-09
8.80144e-09
8.80143e-09
9.77853e-09
8.80142e-09
8.80142e-09
9.85256e-09
8.72741e-09
9.77853e-09
8.80142e-09
8.80142e-09
8.72742e-09
8.54976e-09
7.42461e-09
8.47575e-09
8.47573e-09
7.49862e-09
7.49862e-09
8.54976e-09
7.42463e-09
8.47575e-09
8.47572e-09
7.49863e-09
7.49864e-09
8.47573e-09
7.49862e-09
7.49862e-09
8.54976e-09
7.42464e-09
8.47573e-09
7.49865e-09
7.49862e-09
7.42463e-09
7.24694e-09
6.12181e-09
7.17294e-09
7.17294e-09
6.1958e-09
6.1958e-09
7.24695e-09
6.12179e-09
7.17294e-09
7.17295e-09
6.1958e-09
6.19581e-09
7.17293e-09
6.19582e-09
6.19581e-09
7.24698e-09
6.12182e-09
7.17295e-09
6.19581e-09
6.19583e-09
6.12183e-09
5.94415e-09
4.81897e-09
5.87015e-09
5.87015e-09
4.89297e-09
4.89299e-09
5.94413e-09
4.81899e-09
5.87015e-09
5.87016e-09
4.89297e-09
4.89297e-09
5.87017e-09
4.89298e-09
4.89299e-09
5.94415e-09
4.81896e-09
5.87018e-09
4.89297e-09
4.89297e-09
4.81893e-09
4.64132e-09
3.51604e-09
4.56741e-09
4.56744e-09
3.59006e-09
3.59006e-09
4.64134e-09
3.51603e-09
4.56741e-09
4.56741e-09
3.59006e-09
3.59006e-09
4.56742e-09
3.59006e-09
3.59006e-09
4.64131e-09
3.51602e-09
4.5674e-09
3.59006e-09
3.59005e-09
3.51601e-09
3.33842e-09
2.21301e-09
3.26475e-09
3.26475e-09
2.28647e-09
2.28647e-09
3.3384e-09
2.21301e-09
3.26475e-09
3.26475e-09
2.28647e-09
2.28647e-09
3.26474e-09
2.28647e-09
2.28646e-09
3.33841e-09
2.21302e-09
3.26474e-09
2.28647e-09
2.28646e-09
2.21301e-09
2.03618e-09
9.11412e-10
1.96183e-09
1.96182e-09
9.96014e-10
9.96024e-10
2.03616e-09
9.11411e-10
1.9618e-09
1.96182e-09
9.96065e-10
9.96032e-10
1.96181e-09
9.96035e-10
9.9598e-10
2.03617e-09
9.11404e-10
1.9618e-09
9.9601e-10
9.96064e-10
9.11403e-10
7.3116e-10
6.84117e-10
6.84143e-10
7.31148e-10
6.84182e-10
6.84152e-10
6.58906e-10
6.58927e-10
6.58923e-10
6.84095e-10
7.31146e-10
6.84183e-10
1.2888e-07
1.29501e-07
1.29167e-07
1.29167e-07
1.30916e-07
1.29761e-07
1.323e-07
1.2939e-07
1.30916e-07
1.29761e-07
1.2939e-07
1.323e-07
1.30055e-07
1.32769e-07
1.32769e-07
1.26221e-07
1.27397e-07
1.27488e-07
1.26179e-07
1.27379e-07
1.26164e-07
1.26221e-07
1.27397e-07
1.27488e-07
1.26179e-07
1.27536e-07
1.27536e-07
1.27536e-07
1.25244e-07
1.25244e-07
1.25244e-07
1.25244e-07
1.26283e-07
1.27499e-07
1.27512e-07
1.266e-07
1.27568e-07
1.26228e-07
1.26654e-07
1.27379e-07
1.26164e-07
1.26283e-07
1.27512e-07
1.27499e-07
1.266e-07
1.27568e-07
1.26654e-07
1.26228e-07
1.27472e-07
1.27472e-07
1.264e-07
1.26208e-07
1.26208e-07
1.23786e-07
1.24594e-07
1.24614e-07
1.23772e-07
1.24588e-07
1.23767e-07
1.23786e-07
1.24594e-07
1.24614e-07
1.23772e-07
1.24612e-07
1.24612e-07
1.24612e-07
1.2295e-07
1.2295e-07
1.2295e-07
1.2295e-07