/*--------------------------------*- C++ -*----------------------------------*\
| =========                 |                                                 |
| \\      /  F ield         | OpenFOAM: The Open Source CFD Toolbox           |
|  \\    /   O peration     | Version:  v2012                                 |
|   \\  /    A nd           | Website:  www.openfoam.com                      |
|    \\/     M anipulation  |                                                 |
\*---------------------------------------------------------------------------*/
FoamFile
{
    version     2.0;
    format      ascii;
    class       volScalarField;
    location    "100000";
    object      p;
}
// * * * * * * * * * * * * * * * * * * * * * * * * * * * * * * * * * * * * * //

dimensions      [0 2 -2 0 0 0 0];


internalField   nonuniform List<scalar> 
169728
(
1.2753e-07
1.27464e-07
1.27464e-07
1.27633e-07
1.24607e-07
1.2453e-07
1.2453e-07
1.24662e-07
1.22445e-07
1.22419e-07
1.22419e-07
1.22529e-07
1.20612e-07
1.20604e-07
1.20604e-07
1.207e-07
1.18951e-07
1.18951e-07
1.18951e-07
1.19041e-07
1.17394e-07
1.17396e-07
1.17396e-07
1.17481e-07
1.15904e-07
1.15907e-07
1.15907e-07
1.15989e-07
1.14461e-07
1.14463e-07
1.14463e-07
1.14543e-07
1.13052e-07
1.13053e-07
1.13053e-07
1.13132e-07
1.11668e-07
1.11669e-07
1.11669e-07
1.11746e-07
1.10302e-07
1.10303e-07
1.10303e-07
1.1038e-07
1.08951e-07
1.08951e-07
1.08951e-07
1.09028e-07
1.07611e-07
1.07611e-07
1.07611e-07
1.07687e-07
1.06279e-07
1.06279e-07
1.06279e-07
1.06355e-07
1.04954e-07
1.04954e-07
1.04954e-07
1.05029e-07
1.03634e-07
1.03634e-07
1.03634e-07
1.03709e-07
1.02318e-07
1.02318e-07
1.02318e-07
1.02392e-07
1.01005e-07
1.01005e-07
1.01005e-07
1.01079e-07
9.96939e-08
9.96939e-08
9.96939e-08
9.97683e-08
9.83851e-08
9.8385e-08
9.8385e-08
9.84593e-08
9.70776e-08
9.70775e-08
9.70775e-08
9.71518e-08
9.57711e-08
9.57711e-08
9.5771e-08
9.58453e-08
9.44655e-08
9.44654e-08
9.44655e-08
9.45396e-08
9.31605e-08
9.31605e-08
9.31605e-08
9.32346e-08
9.18561e-08
9.18559e-08
9.18559e-08
9.19301e-08
9.05519e-08
9.05518e-08
9.05518e-08
9.06258e-08
8.9248e-08
8.92479e-08
8.92479e-08
8.9322e-08
8.79443e-08
8.79442e-08
8.79442e-08
8.80183e-08
8.66409e-08
8.66407e-08
8.66407e-08
8.67147e-08
8.53375e-08
8.53373e-08
8.53374e-08
8.54114e-08
8.40343e-08
8.40342e-08
8.40342e-08
8.41082e-08
8.27312e-08
8.2731e-08
8.2731e-08
8.28051e-08
8.14282e-08
8.1428e-08
8.1428e-08
8.15021e-08
8.01252e-08
8.0125e-08
8.01251e-08
8.01991e-08
7.88223e-08
7.88221e-08
7.88221e-08
7.88961e-08
7.75194e-08
7.75192e-08
7.75192e-08
7.75932e-08
7.62165e-08
7.62163e-08
7.62163e-08
7.62903e-08
7.49136e-08
7.49134e-08
7.49134e-08
7.49874e-08
7.36107e-08
7.36105e-08
7.36105e-08
7.36846e-08
7.23078e-08
7.23076e-08
7.23076e-08
7.23817e-08
7.10049e-08
7.10047e-08
7.10047e-08
7.10788e-08
6.9702e-08
6.97018e-08
6.97018e-08
6.97759e-08
6.83991e-08
6.8399e-08
6.8399e-08
6.8473e-08
6.70963e-08
6.70961e-08
6.70961e-08
6.71702e-08
6.57935e-08
6.57933e-08
6.57933e-08
6.58674e-08
6.44907e-08
6.44905e-08
6.44905e-08
6.45646e-08
6.31879e-08
6.31877e-08
6.31877e-08
6.32618e-08
6.18851e-08
6.1885e-08
6.1885e-08
6.1959e-08
6.05824e-08
6.05822e-08
6.05822e-08
6.06563e-08
5.92796e-08
5.92795e-08
5.92795e-08
5.93535e-08
5.79769e-08
5.79767e-08
5.79767e-08
5.80507e-08
5.66741e-08
5.66739e-08
5.66739e-08
5.67479e-08
5.53713e-08
5.53711e-08
5.53712e-08
5.54452e-08
5.40685e-08
5.40684e-08
5.40684e-08
5.41424e-08
5.27658e-08
5.27656e-08
5.27656e-08
5.28396e-08
5.1463e-08
5.14627e-08
5.14628e-08
5.15368e-08
5.01601e-08
5.01599e-08
5.01599e-08
5.0234e-08
4.88573e-08
4.88571e-08
4.88571e-08
4.89312e-08
4.75545e-08
4.75544e-08
4.75544e-08
4.76284e-08
4.62518e-08
4.62516e-08
4.62517e-08
4.63257e-08
4.49491e-08
4.4949e-08
4.4949e-08
4.5023e-08
4.36465e-08
4.36463e-08
4.36463e-08
4.37204e-08
4.23439e-08
4.23437e-08
4.23437e-08
4.24177e-08
4.10414e-08
4.10412e-08
4.10412e-08
4.11153e-08
3.97389e-08
3.97388e-08
3.97387e-08
3.98128e-08
3.84364e-08
3.84362e-08
3.84363e-08
3.85103e-08
3.71339e-08
3.71337e-08
3.71337e-08
3.72078e-08
3.58313e-08
3.58312e-08
3.58312e-08
3.59052e-08
3.45288e-08
3.45287e-08
3.45287e-08
3.46027e-08
3.32263e-08
3.32261e-08
3.32262e-08
3.33002e-08
3.19237e-08
3.19236e-08
3.19235e-08
3.19976e-08
3.06211e-08
3.06209e-08
3.06209e-08
3.0695e-08
2.93185e-08
2.93183e-08
2.93183e-08
2.93923e-08
2.80158e-08
2.80156e-08
2.80156e-08
2.80897e-08
2.67132e-08
2.6713e-08
2.6713e-08
2.6787e-08
2.54105e-08
2.54104e-08
2.54104e-08
2.54844e-08
2.41079e-08
2.41078e-08
2.41078e-08
2.41818e-08
2.28054e-08
2.28052e-08
2.28052e-08
2.28792e-08
2.15028e-08
2.15026e-08
2.15026e-08
2.15766e-08
2.02003e-08
2.02001e-08
2.02001e-08
2.02741e-08
1.88977e-08
1.88975e-08
1.88975e-08
1.89716e-08
1.75951e-08
1.75949e-08
1.7595e-08
1.7669e-08
1.62925e-08
1.62923e-08
1.62923e-08
1.63664e-08
1.49897e-08
1.49896e-08
1.49896e-08
1.50636e-08
1.3687e-08
1.36868e-08
1.36867e-08
1.37608e-08
1.23842e-08
1.2384e-08
1.2384e-08
1.2458e-08
1.10813e-08
1.10812e-08
1.10811e-08
1.11552e-08
9.77849e-09
9.7783e-09
9.77825e-09
9.85229e-09
8.47565e-09
8.47545e-09
8.47542e-09
8.54945e-09
7.17278e-09
7.17261e-09
7.17266e-09
7.24667e-09
5.87003e-09
5.86984e-09
5.86985e-09
5.94385e-09
4.56728e-09
4.56712e-09
4.56716e-09
4.64104e-09
3.26466e-09
3.2645e-09
3.26454e-09
3.33821e-09
1.96335e-09
1.96165e-09
1.96161e-09
2.03598e-09
6.58836e-10
6.84053e-10
6.8409e-10
7.31085e-10
1.28193e-07
1.28412e-07
1.28412e-07
1.28193e-07
1.28412e-07
1.28412e-07
1.28358e-07
1.28358e-07
1.28358e-07
1.28358e-07
1.28412e-07
1.28412e-07
1.28193e-07
1.28412e-07
1.28412e-07
1.28193e-07
1.27633e-07
1.25002e-07
1.27464e-07
1.27464e-07
1.25143e-07
1.25143e-07
1.27633e-07
1.25002e-07
1.27464e-07
1.27464e-07
1.25143e-07
1.25143e-07
1.27464e-07
1.25143e-07
1.25143e-07
1.27633e-07
1.25002e-07
1.27464e-07
1.25143e-07
1.25143e-07
1.25002e-07
1.24662e-07
1.228e-07
1.2453e-07
1.2453e-07
1.22911e-07
1.22911e-07
1.24662e-07
1.228e-07
1.2453e-07
1.2453e-07
1.22911e-07
1.22911e-07
1.2453e-07
1.22911e-07
1.22911e-07
1.24662e-07
1.228e-07
1.2453e-07
1.22911e-07
1.22911e-07
1.228e-07
1.22529e-07
1.20937e-07
1.22419e-07
1.22419e-07
1.21039e-07
1.21039e-07
1.22529e-07
1.20937e-07
1.22419e-07
1.22419e-07
1.21039e-07
1.21039e-07
1.22419e-07
1.21039e-07
1.21039e-07
1.22529e-07
1.20937e-07
1.22419e-07
1.21039e-07
1.21039e-07
1.20937e-07
1.207e-07
1.19259e-07
1.20604e-07
1.20604e-07
1.19353e-07
1.19353e-07
1.207e-07
1.19259e-07
1.20604e-07
1.20604e-07
1.19353e-07
1.19353e-07
1.20604e-07
1.19353e-07
1.19353e-07
1.207e-07
1.19259e-07
1.20604e-07
1.19353e-07
1.19353e-07
1.19259e-07
1.19041e-07
1.17688e-07
1.18951e-07
1.18951e-07
1.17777e-07
1.17777e-07
1.19041e-07
1.17688e-07
1.18951e-07
1.18951e-07
1.17777e-07
1.17777e-07
1.18951e-07
1.17777e-07
1.17777e-07
1.19041e-07
1.17688e-07
1.18951e-07
1.17777e-07
1.17777e-07
1.17688e-07
1.17481e-07
1.16188e-07
1.17396e-07
1.17396e-07
1.16274e-07
1.16274e-07
1.17481e-07
1.16188e-07
1.17396e-07
1.17396e-07
1.16274e-07
1.16274e-07
1.17396e-07
1.16274e-07
1.16274e-07
1.17481e-07
1.16188e-07
1.17396e-07
1.16274e-07
1.16274e-07
1.16188e-07
1.15989e-07
1.14737e-07
1.15907e-07
1.15907e-07
1.1482e-07
1.1482e-07
1.15989e-07
1.14737e-07
1.15907e-07
1.15907e-07
1.1482e-07
1.1482e-07
1.15907e-07
1.1482e-07
1.1482e-07
1.15989e-07
1.14737e-07
1.15907e-07
1.1482e-07
1.1482e-07
1.14737e-07
1.14543e-07
1.13322e-07
1.14463e-07
1.14463e-07
1.13403e-07
1.13403e-07
1.14543e-07
1.13322e-07
1.14463e-07
1.14463e-07
1.13403e-07
1.13403e-07
1.14463e-07
1.13403e-07
1.13403e-07
1.14543e-07
1.13322e-07
1.14463e-07
1.13403e-07
1.13403e-07
1.13322e-07
1.13132e-07
1.11934e-07
1.13053e-07
1.13053e-07
1.12013e-07
1.12013e-07
1.13132e-07
1.11934e-07
1.13053e-07
1.13053e-07
1.12013e-07
1.12013e-07
1.13053e-07
1.12013e-07
1.12013e-07
1.13132e-07
1.11934e-07
1.13053e-07
1.12013e-07
1.12013e-07
1.11934e-07
1.11746e-07
1.10565e-07
1.11669e-07
1.11669e-07
1.10643e-07
1.10643e-07
1.11746e-07
1.10565e-07
1.11669e-07
1.11669e-07
1.10643e-07
1.10643e-07
1.11669e-07
1.10643e-07
1.10643e-07
1.11746e-07
1.10565e-07
1.11669e-07
1.10643e-07
1.10643e-07
1.10565e-07
1.1038e-07
1.09211e-07
1.10303e-07
1.10303e-07
1.09288e-07
1.09288e-07
1.1038e-07
1.09211e-07
1.10303e-07
1.10303e-07
1.09288e-07
1.09288e-07
1.10303e-07
1.09288e-07
1.09288e-07
1.1038e-07
1.09211e-07
1.10303e-07
1.09288e-07
1.09288e-07
1.09211e-07
1.09028e-07
1.07869e-07
1.08951e-07
1.08951e-07
1.07945e-07
1.07945e-07
1.09028e-07
1.07869e-07
1.08951e-07
1.08951e-07
1.07945e-07
1.07945e-07
1.08951e-07
1.07945e-07
1.07945e-07
1.09028e-07
1.07869e-07
1.08951e-07
1.07945e-07
1.07945e-07
1.07869e-07
1.07687e-07
1.06536e-07
1.07611e-07
1.07611e-07
1.06612e-07
1.06612e-07
1.07687e-07
1.06536e-07
1.07611e-07
1.07611e-07
1.06612e-07
1.06612e-07
1.07611e-07
1.06612e-07
1.06612e-07
1.07687e-07
1.06536e-07
1.07611e-07
1.06612e-07
1.06612e-07
1.06536e-07
1.06355e-07
1.05209e-07
1.06279e-07
1.06279e-07
1.05285e-07
1.05285e-07
1.06355e-07
1.0521e-07
1.06279e-07
1.06279e-07
1.05285e-07
1.05285e-07
1.06279e-07
1.05285e-07
1.05285e-07
1.06355e-07
1.0521e-07
1.06279e-07
1.05285e-07
1.05285e-07
1.05209e-07
1.05029e-07
1.03889e-07
1.04954e-07
1.04954e-07
1.03964e-07
1.03964e-07
1.05029e-07
1.03889e-07
1.04954e-07
1.04954e-07
1.03964e-07
1.03964e-07
1.04954e-07
1.03964e-07
1.03964e-07
1.05029e-07
1.03889e-07
1.04954e-07
1.03964e-07
1.03964e-07
1.03889e-07
1.03709e-07
1.02572e-07
1.03634e-07
1.03634e-07
1.02646e-07
1.02647e-07
1.03709e-07
1.02572e-07
1.03634e-07
1.03634e-07
1.02647e-07
1.02647e-07
1.03634e-07
1.02647e-07
1.02647e-07
1.03709e-07
1.02572e-07
1.03634e-07
1.02647e-07
1.02647e-07
1.02572e-07
1.02392e-07
1.01258e-07
1.02318e-07
1.02318e-07
1.01333e-07
1.01333e-07
1.02392e-07
1.01258e-07
1.02318e-07
1.02318e-07
1.01333e-07
1.01333e-07
1.02318e-07
1.01333e-07
1.01333e-07
1.02392e-07
1.01258e-07
1.02318e-07
1.01333e-07
1.01333e-07
1.01258e-07
1.01079e-07
9.99469e-08
1.01005e-07
1.01005e-07
1.00021e-07
1.00021e-07
1.01079e-07
9.99469e-08
1.01005e-07
1.01005e-07
1.00021e-07
1.00021e-07
1.01005e-07
1.00021e-07
1.00021e-07
1.01079e-07
9.9947e-08
1.01005e-07
1.00021e-07
1.00021e-07
9.99469e-08
9.97683e-08
9.86377e-08
9.96939e-08
9.96939e-08
9.87121e-08
9.87121e-08
9.97683e-08
9.86377e-08
9.96939e-08
9.96939e-08
9.87121e-08
9.87121e-08
9.96939e-08
9.87121e-08
9.87121e-08
9.97684e-08
9.86377e-08
9.96939e-08
9.87121e-08
9.87121e-08
9.86377e-08
9.84593e-08
9.733e-08
9.8385e-08
9.8385e-08
9.74043e-08
9.74043e-08
9.84593e-08
9.733e-08
9.8385e-08
9.8385e-08
9.74043e-08
9.74042e-08
9.8385e-08
9.74043e-08
9.74043e-08
9.84593e-08
9.733e-08
9.8385e-08
9.74042e-08
9.74043e-08
9.73299e-08
9.71517e-08
9.60234e-08
9.70775e-08
9.70775e-08
9.60976e-08
9.60976e-08
9.71517e-08
9.60233e-08
9.70775e-08
9.70775e-08
9.60976e-08
9.60976e-08
9.70775e-08
9.60976e-08
9.60976e-08
9.71518e-08
9.60233e-08
9.70775e-08
9.60976e-08
9.60976e-08
9.60234e-08
9.58452e-08
9.47176e-08
9.5771e-08
9.5771e-08
9.47918e-08
9.47918e-08
9.58452e-08
9.47176e-08
9.5771e-08
9.57711e-08
9.47918e-08
9.47918e-08
9.5771e-08
9.47918e-08
9.47918e-08
9.58452e-08
9.47176e-08
9.57711e-08
9.47918e-08
9.47918e-08
9.47176e-08
9.45396e-08
9.34125e-08
9.44654e-08
9.44654e-08
9.34867e-08
9.34867e-08
9.45396e-08
9.34126e-08
9.44655e-08
9.44654e-08
9.34867e-08
9.34867e-08
9.44655e-08
9.34867e-08
9.34867e-08
9.45396e-08
9.34125e-08
9.44654e-08
9.34867e-08
9.34867e-08
9.34125e-08
9.32346e-08
9.2108e-08
9.31605e-08
9.31605e-08
9.2182e-08
9.2182e-08
9.32346e-08
9.21079e-08
9.31605e-08
9.31605e-08
9.2182e-08
9.21821e-08
9.31605e-08
9.2182e-08
9.21821e-08
9.32346e-08
9.21079e-08
9.31605e-08
9.2182e-08
9.21821e-08
9.21079e-08
9.19301e-08
9.08037e-08
9.1856e-08
9.18559e-08
9.08778e-08
9.08778e-08
9.193e-08
9.08037e-08
9.18559e-08
9.1856e-08
9.08778e-08
9.08778e-08
9.1856e-08
9.08778e-08
9.08778e-08
9.19301e-08
9.08037e-08
9.1856e-08
9.08778e-08
9.08778e-08
9.08037e-08
9.06258e-08
8.94998e-08
9.05518e-08
9.05518e-08
8.95738e-08
8.95738e-08
9.06259e-08
8.94997e-08
9.05517e-08
9.05518e-08
8.95738e-08
8.95738e-08
9.05518e-08
8.95738e-08
8.95738e-08
9.06259e-08
8.94997e-08
9.05518e-08
8.95738e-08
8.95738e-08
8.94997e-08
8.9322e-08
8.8196e-08
8.92479e-08
8.92479e-08
8.82701e-08
8.82701e-08
8.93219e-08
8.8196e-08
8.92479e-08
8.92478e-08
8.82701e-08
8.82701e-08
8.92478e-08
8.82701e-08
8.82701e-08
8.93219e-08
8.8196e-08
8.92478e-08
8.82701e-08
8.82701e-08
8.81961e-08
8.80182e-08
8.68925e-08
8.79442e-08
8.79442e-08
8.69666e-08
8.69665e-08
8.80182e-08
8.68925e-08
8.79442e-08
8.79442e-08
8.69666e-08
8.69666e-08
8.79442e-08
8.69665e-08
8.69666e-08
8.80183e-08
8.68925e-08
8.79442e-08
8.69665e-08
8.69666e-08
8.68925e-08
8.67148e-08
8.55891e-08
8.66407e-08
8.66407e-08
8.56632e-08
8.56632e-08
8.67148e-08
8.55892e-08
8.66407e-08
8.66407e-08
8.56632e-08
8.56632e-08
8.66407e-08
8.56632e-08
8.56632e-08
8.67148e-08
8.55892e-08
8.66407e-08
8.56632e-08
8.56632e-08
8.55891e-08
8.54114e-08
8.42859e-08
8.53374e-08
8.53374e-08
8.43599e-08
8.436e-08
8.54114e-08
8.4286e-08
8.53374e-08
8.53374e-08
8.43599e-08
8.436e-08
8.53374e-08
8.436e-08
8.43599e-08
8.54114e-08
8.42859e-08
8.53374e-08
8.43599e-08
8.43599e-08
8.42859e-08
8.41082e-08
8.29828e-08
8.40342e-08
8.40342e-08
8.30568e-08
8.30568e-08
8.41082e-08
8.29828e-08
8.40341e-08
8.40342e-08
8.30568e-08
8.30568e-08
8.40341e-08
8.30568e-08
8.30568e-08
8.41082e-08
8.29828e-08
8.40341e-08
8.30568e-08
8.30568e-08
8.29828e-08
8.28051e-08
8.16798e-08
8.2731e-08
8.27311e-08
8.17538e-08
8.17538e-08
8.28051e-08
8.16797e-08
8.27311e-08
8.2731e-08
8.17537e-08
8.17538e-08
8.27311e-08
8.17538e-08
8.17538e-08
8.28051e-08
8.16798e-08
8.2731e-08
8.17538e-08
8.17538e-08
8.16797e-08
8.15021e-08
8.03768e-08
8.1428e-08
8.1428e-08
8.04508e-08
8.04508e-08
8.1502e-08
8.03768e-08
8.1428e-08
8.1428e-08
8.04508e-08
8.04508e-08
8.1428e-08
8.04508e-08
8.04508e-08
8.15021e-08
8.03768e-08
8.1428e-08
8.04508e-08
8.04508e-08
8.03768e-08
8.01991e-08
7.90738e-08
8.0125e-08
8.01251e-08
7.91478e-08
7.91479e-08
8.01991e-08
7.90739e-08
8.01251e-08
8.0125e-08
7.91479e-08
7.91478e-08
8.01251e-08
7.91478e-08
7.91479e-08
8.01991e-08
7.90738e-08
8.01251e-08
7.91479e-08
7.91478e-08
7.90738e-08
7.88962e-08
7.77709e-08
7.88221e-08
7.88221e-08
7.78449e-08
7.78449e-08
7.88962e-08
7.77709e-08
7.88221e-08
7.88221e-08
7.78449e-08
7.78449e-08
7.88221e-08
7.78449e-08
7.78449e-08
7.88962e-08
7.77709e-08
7.88221e-08
7.78449e-08
7.78449e-08
7.77709e-08
7.75932e-08
7.6468e-08
7.75192e-08
7.75192e-08
7.6542e-08
7.6542e-08
7.75932e-08
7.6468e-08
7.75192e-08
7.75192e-08
7.6542e-08
7.6542e-08
7.75192e-08
7.6542e-08
7.6542e-08
7.75932e-08
7.6468e-08
7.75192e-08
7.6542e-08
7.6542e-08
7.6468e-08
7.62903e-08
7.51651e-08
7.62163e-08
7.62163e-08
7.52391e-08
7.52391e-08
7.62903e-08
7.51651e-08
7.62163e-08
7.62163e-08
7.52391e-08
7.52391e-08
7.62163e-08
7.52391e-08
7.52391e-08
7.62903e-08
7.51651e-08
7.62163e-08
7.52391e-08
7.52391e-08
7.51651e-08
7.49874e-08
7.38622e-08
7.49134e-08
7.49134e-08
7.39363e-08
7.39362e-08
7.49874e-08
7.38622e-08
7.49134e-08
7.49134e-08
7.39362e-08
7.39362e-08
7.49134e-08
7.39362e-08
7.39362e-08
7.49874e-08
7.38622e-08
7.49134e-08
7.39362e-08
7.39362e-08
7.38622e-08
7.36845e-08
7.25593e-08
7.36105e-08
7.36105e-08
7.26333e-08
7.26333e-08
7.36846e-08
7.25593e-08
7.36105e-08
7.36105e-08
7.26333e-08
7.26334e-08
7.36105e-08
7.26334e-08
7.26333e-08
7.36846e-08
7.25593e-08
7.36105e-08
7.26334e-08
7.26334e-08
7.25594e-08
7.23817e-08
7.12565e-08
7.23076e-08
7.23076e-08
7.13304e-08
7.13305e-08
7.23816e-08
7.12564e-08
7.23076e-08
7.23076e-08
7.13305e-08
7.13304e-08
7.23076e-08
7.13304e-08
7.13305e-08
7.23816e-08
7.12564e-08
7.23076e-08
7.13305e-08
7.13304e-08
7.12564e-08
7.10788e-08
6.99536e-08
7.10047e-08
7.10047e-08
7.00276e-08
7.00275e-08
7.10787e-08
6.99536e-08
7.10047e-08
7.10047e-08
7.00276e-08
7.00276e-08
7.10047e-08
7.00276e-08
7.00276e-08
7.10788e-08
6.99535e-08
7.10047e-08
7.00275e-08
7.00276e-08
6.99536e-08
6.97759e-08
6.86507e-08
6.97018e-08
6.97018e-08
6.87247e-08
6.87247e-08
6.97759e-08
6.86507e-08
6.97018e-08
6.97018e-08
6.87247e-08
6.87247e-08
6.97018e-08
6.87247e-08
6.87247e-08
6.97759e-08
6.86507e-08
6.97018e-08
6.87247e-08
6.87247e-08
6.86506e-08
6.8473e-08
6.73479e-08
6.8399e-08
6.8399e-08
6.74218e-08
6.74218e-08
6.8473e-08
6.73478e-08
6.8399e-08
6.8399e-08
6.74218e-08
6.74219e-08
6.8399e-08
6.74218e-08
6.74218e-08
6.84731e-08
6.73478e-08
6.8399e-08
6.74218e-08
6.74218e-08
6.73478e-08
6.71702e-08
6.6045e-08
6.70961e-08
6.70961e-08
6.6119e-08
6.6119e-08
6.71702e-08
6.6045e-08
6.70961e-08
6.70962e-08
6.6119e-08
6.6119e-08
6.70961e-08
6.6119e-08
6.6119e-08
6.71702e-08
6.6045e-08
6.70961e-08
6.6119e-08
6.6119e-08
6.6045e-08
6.58673e-08
6.47422e-08
6.57933e-08
6.57933e-08
6.48162e-08
6.48162e-08
6.58673e-08
6.47422e-08
6.57933e-08
6.57933e-08
6.48162e-08
6.48162e-08
6.57933e-08
6.48162e-08
6.48162e-08
6.58673e-08
6.47422e-08
6.57933e-08
6.48162e-08
6.48162e-08
6.47422e-08
6.45645e-08
6.34394e-08
6.44905e-08
6.44905e-08
6.35134e-08
6.35134e-08
6.45645e-08
6.34394e-08
6.44905e-08
6.44905e-08
6.35134e-08
6.35134e-08
6.44905e-08
6.35134e-08
6.35134e-08
6.45645e-08
6.34394e-08
6.44905e-08
6.35134e-08
6.35134e-08
6.34394e-08
6.32617e-08
6.21367e-08
6.31877e-08
6.31877e-08
6.22106e-08
6.22107e-08
6.32618e-08
6.21367e-08
6.31877e-08
6.31877e-08
6.22106e-08
6.22107e-08
6.31877e-08
6.22106e-08
6.22107e-08
6.32618e-08
6.21367e-08
6.31877e-08
6.22107e-08
6.22107e-08
6.21366e-08
6.1959e-08
6.08339e-08
6.1885e-08
6.1885e-08
6.09079e-08
6.09079e-08
6.1959e-08
6.08339e-08
6.1885e-08
6.1885e-08
6.09079e-08
6.09079e-08
6.1885e-08
6.09079e-08
6.09079e-08
6.1959e-08
6.08339e-08
6.1885e-08
6.09079e-08
6.09079e-08
6.08339e-08
6.06563e-08
5.95312e-08
6.05822e-08
6.05823e-08
5.96052e-08
5.96052e-08
6.06563e-08
5.95312e-08
6.05822e-08
6.05822e-08
5.96051e-08
5.96052e-08
6.05823e-08
5.96052e-08
5.96052e-08
6.06562e-08
5.95312e-08
6.05822e-08
5.96052e-08
5.96052e-08
5.95312e-08
5.93535e-08
5.82284e-08
5.92795e-08
5.92795e-08
5.83024e-08
5.83024e-08
5.93535e-08
5.82284e-08
5.92795e-08
5.92795e-08
5.83024e-08
5.83024e-08
5.92795e-08
5.83024e-08
5.83024e-08
5.93535e-08
5.82284e-08
5.92795e-08
5.83024e-08
5.83024e-08
5.82284e-08
5.80507e-08
5.69256e-08
5.79767e-08
5.79767e-08
5.69996e-08
5.69996e-08
5.80507e-08
5.69256e-08
5.79767e-08
5.79767e-08
5.69996e-08
5.69996e-08
5.79767e-08
5.69996e-08
5.69996e-08
5.80507e-08
5.69256e-08
5.79767e-08
5.69996e-08
5.69996e-08
5.69256e-08
5.67479e-08
5.56229e-08
5.66739e-08
5.66739e-08
5.56968e-08
5.56969e-08
5.6748e-08
5.56228e-08
5.66739e-08
5.66739e-08
5.56968e-08
5.56968e-08
5.66739e-08
5.56968e-08
5.56968e-08
5.6748e-08
5.56228e-08
5.66739e-08
5.56968e-08
5.56968e-08
5.56228e-08
5.54452e-08
5.43201e-08
5.53711e-08
5.53712e-08
5.43941e-08
5.43941e-08
5.54452e-08
5.43201e-08
5.53712e-08
5.53711e-08
5.43941e-08
5.43941e-08
5.53712e-08
5.43941e-08
5.43941e-08
5.54452e-08
5.43201e-08
5.53711e-08
5.43941e-08
5.43941e-08
5.43201e-08
5.41424e-08
5.30173e-08
5.40684e-08
5.40684e-08
5.30913e-08
5.30913e-08
5.41424e-08
5.30173e-08
5.40684e-08
5.40684e-08
5.30913e-08
5.30913e-08
5.40684e-08
5.30913e-08
5.30913e-08
5.41424e-08
5.30173e-08
5.40684e-08
5.30913e-08
5.30913e-08
5.30173e-08
5.28396e-08
5.17145e-08
5.27656e-08
5.27656e-08
5.17885e-08
5.17885e-08
5.28396e-08
5.17145e-08
5.27656e-08
5.27656e-08
5.17885e-08
5.17885e-08
5.27656e-08
5.17885e-08
5.17885e-08
5.28396e-08
5.17145e-08
5.27656e-08
5.17885e-08
5.17885e-08
5.17145e-08
5.15368e-08
5.04116e-08
5.14628e-08
5.14628e-08
5.04856e-08
5.04856e-08
5.15368e-08
5.04116e-08
5.14628e-08
5.14628e-08
5.04856e-08
5.04856e-08
5.14628e-08
5.04857e-08
5.04856e-08
5.15368e-08
5.04117e-08
5.14628e-08
5.04856e-08
5.04856e-08
5.04116e-08
5.02339e-08
4.91088e-08
5.01599e-08
5.01599e-08
4.91828e-08
4.91828e-08
5.0234e-08
4.91088e-08
5.01599e-08
5.01599e-08
4.91828e-08
4.91828e-08
5.01599e-08
4.91828e-08
4.91828e-08
5.0234e-08
4.91088e-08
5.01599e-08
4.91828e-08
4.91828e-08
4.91088e-08
4.89311e-08
4.78061e-08
4.88571e-08
4.88571e-08
4.78801e-08
4.788e-08
4.89312e-08
4.78061e-08
4.88571e-08
4.88571e-08
4.788e-08
4.78801e-08
4.88571e-08
4.78801e-08
4.78801e-08
4.89311e-08
4.7806e-08
4.88571e-08
4.788e-08
4.78801e-08
4.78061e-08
4.76284e-08
4.65033e-08
4.75544e-08
4.75544e-08
4.65773e-08
4.65773e-08
4.76284e-08
4.65033e-08
4.75544e-08
4.75544e-08
4.65773e-08
4.65773e-08
4.75544e-08
4.65773e-08
4.65773e-08
4.76284e-08
4.65033e-08
4.75544e-08
4.65773e-08
4.65773e-08
4.65033e-08
4.63257e-08
4.52006e-08
4.62517e-08
4.62517e-08
4.52746e-08
4.52746e-08
4.63257e-08
4.52007e-08
4.62517e-08
4.62517e-08
4.52746e-08
4.52747e-08
4.62517e-08
4.52747e-08
4.52746e-08
4.63257e-08
4.52007e-08
4.62517e-08
4.52746e-08
4.52746e-08
4.52006e-08
4.5023e-08
4.3898e-08
4.4949e-08
4.4949e-08
4.3972e-08
4.3972e-08
4.5023e-08
4.3898e-08
4.4949e-08
4.4949e-08
4.3972e-08
4.3972e-08
4.4949e-08
4.39719e-08
4.3972e-08
4.5023e-08
4.3898e-08
4.4949e-08
4.3972e-08
4.3972e-08
4.3898e-08
4.37203e-08
4.25954e-08
4.36463e-08
4.36463e-08
4.26693e-08
4.26694e-08
4.37203e-08
4.25954e-08
4.36463e-08
4.36463e-08
4.26694e-08
4.26694e-08
4.36463e-08
4.26694e-08
4.26694e-08
4.37203e-08
4.25954e-08
4.36463e-08
4.26694e-08
4.26694e-08
4.25953e-08
4.24177e-08
4.12929e-08
4.23437e-08
4.23437e-08
4.13669e-08
4.13668e-08
4.24177e-08
4.12928e-08
4.23437e-08
4.23437e-08
4.13668e-08
4.13669e-08
4.23437e-08
4.13668e-08
4.13668e-08
4.24178e-08
4.12928e-08
4.23437e-08
4.13668e-08
4.13668e-08
4.12929e-08
4.11152e-08
3.99904e-08
4.10412e-08
4.10412e-08
4.00643e-08
4.00644e-08
4.11152e-08
3.99904e-08
4.10412e-08
4.10412e-08
4.00644e-08
4.00644e-08
4.10412e-08
4.00644e-08
4.00644e-08
4.11152e-08
3.99904e-08
4.10412e-08
4.00644e-08
4.00644e-08
3.99904e-08
3.98127e-08
3.86879e-08
3.97387e-08
3.97388e-08
3.87619e-08
3.87619e-08
3.98128e-08
3.86879e-08
3.97387e-08
3.97387e-08
3.87619e-08
3.87619e-08
3.97387e-08
3.87619e-08
3.87619e-08
3.98128e-08
3.86879e-08
3.97387e-08
3.87619e-08
3.87619e-08
3.86879e-08
3.85103e-08
3.73853e-08
3.84362e-08
3.84362e-08
3.74593e-08
3.74594e-08
3.85103e-08
3.73854e-08
3.84363e-08
3.84362e-08
3.74593e-08
3.74593e-08
3.84363e-08
3.74594e-08
3.74594e-08
3.85103e-08
3.73854e-08
3.84362e-08
3.74594e-08
3.74594e-08
3.73854e-08
3.72077e-08
3.60829e-08
3.71337e-08
3.71337e-08
3.61568e-08
3.61568e-08
3.72077e-08
3.60828e-08
3.71337e-08
3.71337e-08
3.61568e-08
3.61568e-08
3.71337e-08
3.61568e-08
3.61568e-08
3.72077e-08
3.60828e-08
3.71337e-08
3.61568e-08
3.61568e-08
3.60828e-08
3.59052e-08
3.47803e-08
3.58312e-08
3.58312e-08
3.48543e-08
3.48543e-08
3.59052e-08
3.47803e-08
3.58312e-08
3.58312e-08
3.48543e-08
3.48543e-08
3.58312e-08
3.48543e-08
3.48543e-08
3.59052e-08
3.47803e-08
3.58312e-08
3.48543e-08
3.48543e-08
3.47803e-08
3.46027e-08
3.34778e-08
3.45287e-08
3.45287e-08
3.35518e-08
3.35518e-08
3.46027e-08
3.34778e-08
3.45287e-08
3.45287e-08
3.35518e-08
3.35518e-08
3.45287e-08
3.35518e-08
3.35518e-08
3.46027e-08
3.34778e-08
3.45287e-08
3.35518e-08
3.35518e-08
3.34778e-08
3.33002e-08
3.21752e-08
3.32261e-08
3.32262e-08
3.22492e-08
3.22492e-08
3.33002e-08
3.21752e-08
3.32261e-08
3.32261e-08
3.22492e-08
3.22492e-08
3.32262e-08
3.22492e-08
3.22492e-08
3.33002e-08
3.21752e-08
3.32261e-08
3.22492e-08
3.22492e-08
3.21752e-08
3.19976e-08
3.08726e-08
3.19236e-08
3.19236e-08
3.09466e-08
3.09466e-08
3.19976e-08
3.08726e-08
3.19236e-08
3.19235e-08
3.09466e-08
3.09466e-08
3.19236e-08
3.09466e-08
3.09466e-08
3.19976e-08
3.08726e-08
3.19236e-08
3.09466e-08
3.09466e-08
3.08726e-08
3.06949e-08
2.95699e-08
3.06209e-08
3.06209e-08
2.96439e-08
2.96439e-08
3.06949e-08
2.957e-08
3.06209e-08
3.06209e-08
2.96439e-08
2.96439e-08
3.06209e-08
2.96439e-08
2.96439e-08
3.06949e-08
2.95699e-08
3.06209e-08
2.96439e-08
2.96439e-08
2.95699e-08
2.93923e-08
2.82673e-08
2.93183e-08
2.93183e-08
2.83413e-08
2.83413e-08
2.93923e-08
2.82673e-08
2.93183e-08
2.93183e-08
2.83413e-08
2.83413e-08
2.93183e-08
2.83413e-08
2.83413e-08
2.93923e-08
2.82673e-08
2.93183e-08
2.83413e-08
2.83413e-08
2.82673e-08
2.80897e-08
2.69646e-08
2.80156e-08
2.80156e-08
2.70387e-08
2.70386e-08
2.80896e-08
2.69647e-08
2.80156e-08
2.80156e-08
2.70387e-08
2.70386e-08
2.80156e-08
2.70386e-08
2.70386e-08
2.80896e-08
2.69647e-08
2.80156e-08
2.70386e-08
2.70386e-08
2.69646e-08
2.6787e-08
2.5662e-08
2.6713e-08
2.6713e-08
2.5736e-08
2.5736e-08
2.6787e-08
2.5662e-08
2.6713e-08
2.6713e-08
2.5736e-08
2.5736e-08
2.6713e-08
2.5736e-08
2.5736e-08
2.6787e-08
2.5662e-08
2.6713e-08
2.5736e-08
2.5736e-08
2.5662e-08
2.54844e-08
2.43594e-08
2.54104e-08
2.54103e-08
2.44334e-08
2.44334e-08
2.54844e-08
2.43594e-08
2.54103e-08
2.54104e-08
2.44334e-08
2.44334e-08
2.54104e-08
2.44334e-08
2.44334e-08
2.54844e-08
2.43594e-08
2.54104e-08
2.44334e-08
2.44334e-08
2.43594e-08
2.41818e-08
2.30569e-08
2.41078e-08
2.41078e-08
2.31308e-08
2.31309e-08
2.41818e-08
2.30569e-08
2.41078e-08
2.41077e-08
2.31309e-08
2.31308e-08
2.41078e-08
2.31308e-08
2.31308e-08
2.41818e-08
2.30569e-08
2.41078e-08
2.31309e-08
2.31308e-08
2.30568e-08
2.28792e-08
2.17543e-08
2.28052e-08
2.28052e-08
2.18283e-08
2.18283e-08
2.28792e-08
2.17543e-08
2.28052e-08
2.28052e-08
2.18283e-08
2.18283e-08
2.28052e-08
2.18283e-08
2.18283e-08
2.28792e-08
2.17543e-08
2.28052e-08
2.18283e-08
2.18282e-08
2.17543e-08
2.15767e-08
2.04518e-08
2.15026e-08
2.15026e-08
2.05257e-08
2.05257e-08
2.15766e-08
2.04518e-08
2.15026e-08
2.15026e-08
2.05257e-08
2.05257e-08
2.15026e-08
2.05257e-08
2.05257e-08
2.15767e-08
2.04517e-08
2.15026e-08
2.05257e-08
2.05257e-08
2.04517e-08
2.02741e-08
1.91492e-08
2.02001e-08
2.02001e-08
1.92232e-08
1.92232e-08
2.02741e-08
1.91492e-08
2.02001e-08
2.02001e-08
1.92232e-08
1.92232e-08
2.02001e-08
1.92232e-08
1.92232e-08
2.02741e-08
1.91492e-08
2.02001e-08
1.92232e-08
1.92232e-08
1.91492e-08
1.89716e-08
1.78466e-08
1.88975e-08
1.88975e-08
1.79206e-08
1.79206e-08
1.89715e-08
1.78466e-08
1.88975e-08
1.88975e-08
1.79206e-08
1.79206e-08
1.88975e-08
1.79206e-08
1.79206e-08
1.89716e-08
1.78466e-08
1.88975e-08
1.79206e-08
1.79206e-08
1.78466e-08
1.7669e-08
1.6544e-08
1.75949e-08
1.75949e-08
1.6618e-08
1.66179e-08
1.7669e-08
1.6544e-08
1.75949e-08
1.7595e-08
1.6618e-08
1.6618e-08
1.7595e-08
1.66179e-08
1.6618e-08
1.7669e-08
1.6544e-08
1.7595e-08
1.6618e-08
1.6618e-08
1.6544e-08
1.63663e-08
1.52412e-08
1.62923e-08
1.62923e-08
1.53152e-08
1.53152e-08
1.63663e-08
1.52413e-08
1.62923e-08
1.62923e-08
1.53152e-08
1.53153e-08
1.62923e-08
1.53152e-08
1.53153e-08
1.63663e-08
1.52413e-08
1.62923e-08
1.53153e-08
1.53153e-08
1.52413e-08
1.50636e-08
1.39385e-08
1.49895e-08
1.49896e-08
1.40125e-08
1.40125e-08
1.50636e-08
1.39385e-08
1.49895e-08
1.49896e-08
1.40125e-08
1.40125e-08
1.49896e-08
1.40125e-08
1.40125e-08
1.50636e-08
1.39384e-08
1.49896e-08
1.40124e-08
1.40125e-08
1.39385e-08
1.37608e-08
1.26357e-08
1.36868e-08
1.36868e-08
1.27097e-08
1.27097e-08
1.37608e-08
1.26357e-08
1.36868e-08
1.36868e-08
1.27097e-08
1.27097e-08
1.36868e-08
1.27097e-08
1.27097e-08
1.37608e-08
1.26357e-08
1.36868e-08
1.27097e-08
1.27097e-08
1.26357e-08
1.2458e-08
1.13329e-08
1.2384e-08
1.2384e-08
1.14069e-08
1.14069e-08
1.2458e-08
1.13329e-08
1.2384e-08
1.2384e-08
1.14069e-08
1.14068e-08
1.2384e-08
1.14069e-08
1.14068e-08
1.2458e-08
1.13329e-08
1.2384e-08
1.14069e-08
1.14068e-08
1.13328e-08
1.11552e-08
1.00301e-08
1.10812e-08
1.10812e-08
1.0104e-08
1.0104e-08
1.11552e-08
1.003e-08
1.10812e-08
1.10811e-08
1.0104e-08
1.0104e-08
1.10811e-08
1.0104e-08
1.0104e-08
1.11552e-08
1.003e-08
1.10811e-08
1.0104e-08
1.0104e-08
1.003e-08
9.85237e-09
8.72721e-09
9.77834e-09
9.77832e-09
8.80119e-09
8.80117e-09
9.85236e-09
8.72718e-09
9.7783e-09
9.77827e-09
8.80118e-09
8.80114e-09
9.77826e-09
8.80116e-09
8.80112e-09
9.85228e-09
8.72711e-09
9.77824e-09
8.80112e-09
8.80111e-09
8.72711e-09
8.54949e-09
7.42427e-09
8.47548e-09
8.47545e-09
7.49829e-09
7.49829e-09
8.54949e-09
7.42429e-09
8.47548e-09
8.47542e-09
7.4983e-09
7.49833e-09
8.47542e-09
7.49829e-09
7.49831e-09
8.54945e-09
7.42434e-09
8.47542e-09
7.49834e-09
7.49832e-09
7.42433e-09
7.2466e-09
6.12149e-09
7.1726e-09
7.1726e-09
6.19548e-09
6.19547e-09
7.24661e-09
6.12147e-09
7.17261e-09
7.17264e-09
6.19548e-09
6.19549e-09
7.17262e-09
6.19549e-09
6.19549e-09
7.24667e-09
6.1215e-09
7.17264e-09
6.19549e-09
6.19551e-09
6.12151e-09
5.94383e-09
4.81865e-09
5.86983e-09
5.86982e-09
4.89265e-09
4.89268e-09
5.9438e-09
4.81868e-09
5.86984e-09
5.86984e-09
4.89267e-09
4.89269e-09
5.86985e-09
4.89268e-09
4.8927e-09
5.94384e-09
4.81869e-09
5.86986e-09
4.8927e-09
4.8927e-09
4.81866e-09
4.641e-09
3.51575e-09
4.56709e-09
4.56712e-09
3.58977e-09
3.58978e-09
4.64102e-09
3.51575e-09
4.56711e-09
4.56715e-09
3.58978e-09
3.58983e-09
4.56716e-09
3.58978e-09
3.58984e-09
4.64105e-09
3.51581e-09
4.56715e-09
3.58985e-09
3.58985e-09
3.51581e-09
3.33815e-09
2.21285e-09
3.26449e-09
3.26449e-09
2.2863e-09
2.28629e-09
3.33813e-09
2.21284e-09
3.2645e-09
3.26453e-09
2.28629e-09
2.28627e-09
3.26453e-09
2.28629e-09
2.28625e-09
3.3382e-09
2.21282e-09
3.26454e-09
2.28626e-09
2.28625e-09
2.2128e-09
2.03603e-09
9.11305e-10
1.96168e-09
1.96167e-09
9.95886e-10
9.95887e-10
2.03601e-09
9.1129e-10
1.96165e-09
1.96164e-09
9.9597e-10
9.95921e-10
1.96162e-09
9.95931e-10
9.95869e-10
2.03598e-09
9.11319e-10
1.9616e-09
9.95936e-10
9.95988e-10
9.11317e-10
7.31061e-10
6.83995e-10
6.84015e-10
7.31037e-10
6.84114e-10
6.84062e-10
6.5882e-10
6.58869e-10
6.58866e-10
6.84012e-10
7.31082e-10
6.84155e-10
1.28875e-07
1.29496e-07
1.29162e-07
1.29162e-07
1.3091e-07
1.29756e-07
1.32294e-07
1.29385e-07
1.3091e-07
1.29756e-07
1.29385e-07
1.32294e-07
1.30049e-07
1.32763e-07
1.32763e-07
1.26216e-07
1.27392e-07
1.27483e-07
1.26173e-07
1.27374e-07
1.26158e-07
1.26216e-07
1.27392e-07
1.27483e-07
1.26173e-07
1.2753e-07
1.2753e-07
1.2753e-07
1.25238e-07
1.25238e-07
1.25238e-07
1.25238e-07
1.26278e-07
1.27493e-07
1.27507e-07
1.26594e-07
1.27563e-07
1.26223e-07
1.26649e-07
1.27374e-07
1.26158e-07
1.26278e-07
1.27507e-07
1.27493e-07
1.26594e-07
1.27563e-07
1.26649e-07
1.26223e-07
1.27466e-07
1.27466e-07
1.26394e-07
1.26202e-07
1.26202e-07
1.23781e-07
1.24588e-07
1.24609e-07
1.23766e-07
1.24582e-07
1.23762e-07
1.23781e-07
1.24588e-07
1.24609e-07
1.23766e-07
1.24607e-07
1.24607e-07
1.24607e-07
1.22945e-07
1.22945e-07
1.22945e-07
1.22945e-07