/*--------------------------------*- C++ -*----------------------------------*\
| =========                 |                                                 |
| \\      /  F ield         | OpenFOAM: The Open Source CFD Toolbox           |
|  \\    /   O peration     | Version:  v2012                                 |
|   \\  /    A nd           | Website:  www.openfoam.com                      |
|    \\/     M anipulation  |                                                 |
\*---------------------------------------------------------------------------*/
FoamFile
{
    version     2.0;
    format      ascii;
    class       volScalarField;
    location    "37500";
    object      p;
}
// * * * * * * * * * * * * * * * * * * * * * * * * * * * * * * * * * * * * * //

dimensions      [0 2 -2 0 0 0 0];


internalField   nonuniform List<scalar> 
169728
(
1.28621e-07
1.28555e-07
1.28555e-07
1.28723e-07
1.25697e-07
1.25621e-07
1.25621e-07
1.25752e-07
1.23535e-07
1.2351e-07
1.2351e-07
1.23619e-07
1.21702e-07
1.21694e-07
1.21694e-07
1.2179e-07
1.20041e-07
1.20041e-07
1.20041e-07
1.2013e-07
1.18483e-07
1.18485e-07
1.18485e-07
1.1857e-07
1.16993e-07
1.16996e-07
1.16996e-07
1.17078e-07
1.1555e-07
1.15552e-07
1.15552e-07
1.15632e-07
1.14141e-07
1.14142e-07
1.14142e-07
1.14221e-07
1.12756e-07
1.12757e-07
1.12757e-07
1.12835e-07
1.11391e-07
1.11392e-07
1.11392e-07
1.11468e-07
1.10042e-07
1.10042e-07
1.10042e-07
1.10118e-07
1.08707e-07
1.08707e-07
1.08707e-07
1.08782e-07
1.07382e-07
1.07382e-07
1.07382e-07
1.07457e-07
1.06063e-07
1.06063e-07
1.06063e-07
1.06137e-07
1.04745e-07
1.04745e-07
1.04745e-07
1.0482e-07
1.03428e-07
1.03428e-07
1.03428e-07
1.03502e-07
1.02111e-07
1.0211e-07
1.0211e-07
1.02185e-07
1.00793e-07
1.00793e-07
1.00793e-07
1.00868e-07
9.9476e-08
9.94758e-08
9.94758e-08
9.95507e-08
9.81587e-08
9.81585e-08
9.81585e-08
9.82334e-08
9.68413e-08
9.68412e-08
9.68412e-08
9.69161e-08
9.55239e-08
9.55237e-08
9.55237e-08
9.55986e-08
9.42064e-08
9.42062e-08
9.42062e-08
9.42812e-08
9.28888e-08
9.28887e-08
9.28887e-08
9.29636e-08
9.15713e-08
9.15712e-08
9.15712e-08
9.1646e-08
9.02538e-08
9.02537e-08
9.02537e-08
9.03286e-08
8.89364e-08
8.89362e-08
8.89362e-08
8.90111e-08
8.7619e-08
8.76188e-08
8.76188e-08
8.76937e-08
8.63016e-08
8.63014e-08
8.63015e-08
8.63763e-08
8.49842e-08
8.49841e-08
8.49841e-08
8.5059e-08
8.36669e-08
8.36667e-08
8.36667e-08
8.37416e-08
8.23495e-08
8.23493e-08
8.23493e-08
8.24242e-08
8.10321e-08
8.10319e-08
8.10319e-08
8.11068e-08
7.97147e-08
7.97145e-08
7.97145e-08
7.97894e-08
7.83973e-08
7.83971e-08
7.83971e-08
7.8472e-08
7.70799e-08
7.70797e-08
7.70797e-08
7.71546e-08
7.57624e-08
7.57622e-08
7.57622e-08
7.58371e-08
7.44449e-08
7.44448e-08
7.44448e-08
7.45197e-08
7.31274e-08
7.31273e-08
7.31273e-08
7.32022e-08
7.18099e-08
7.18098e-08
7.18098e-08
7.18847e-08
7.04924e-08
7.04922e-08
7.04922e-08
7.05671e-08
6.91748e-08
6.91746e-08
6.91747e-08
6.92495e-08
6.78572e-08
6.78571e-08
6.78571e-08
6.7932e-08
6.65397e-08
6.65395e-08
6.65395e-08
6.66145e-08
6.52222e-08
6.5222e-08
6.52219e-08
6.52969e-08
6.39046e-08
6.39044e-08
6.39045e-08
6.39793e-08
6.25871e-08
6.25869e-08
6.25869e-08
6.26618e-08
6.12697e-08
6.12695e-08
6.12695e-08
6.13444e-08
5.99523e-08
5.99521e-08
5.99521e-08
6.0027e-08
5.86349e-08
5.86347e-08
5.86347e-08
5.87096e-08
5.73175e-08
5.73174e-08
5.73174e-08
5.73922e-08
5.60002e-08
5.6e-08
5.6e-08
5.60749e-08
5.46829e-08
5.46827e-08
5.46827e-08
5.47576e-08
5.33656e-08
5.33654e-08
5.33654e-08
5.34403e-08
5.20483e-08
5.20481e-08
5.20481e-08
5.21231e-08
5.0731e-08
5.07308e-08
5.07308e-08
5.08057e-08
4.94136e-08
4.94135e-08
4.94135e-08
4.94884e-08
4.80962e-08
4.80961e-08
4.8096e-08
4.8171e-08
4.67788e-08
4.67786e-08
4.67787e-08
4.68535e-08
4.54613e-08
4.54612e-08
4.54612e-08
4.55361e-08
4.41438e-08
4.41436e-08
4.41436e-08
4.42186e-08
4.28262e-08
4.2826e-08
4.2826e-08
4.29009e-08
4.15085e-08
4.15083e-08
4.15083e-08
4.15833e-08
4.01908e-08
4.01907e-08
4.01907e-08
4.02656e-08
3.88732e-08
3.8873e-08
3.8873e-08
3.8948e-08
3.75557e-08
3.75555e-08
3.75555e-08
3.76304e-08
3.62382e-08
3.6238e-08
3.6238e-08
3.63129e-08
3.49208e-08
3.49206e-08
3.49206e-08
3.49955e-08
3.36034e-08
3.36033e-08
3.36033e-08
3.36782e-08
3.22861e-08
3.22859e-08
3.22859e-08
3.23608e-08
3.09689e-08
3.09687e-08
3.09687e-08
3.10436e-08
2.96516e-08
2.96514e-08
2.96514e-08
2.97263e-08
2.83344e-08
2.83342e-08
2.83342e-08
2.84091e-08
2.70171e-08
2.70169e-08
2.7017e-08
2.70919e-08
2.56998e-08
2.56997e-08
2.56997e-08
2.57746e-08
2.43825e-08
2.43823e-08
2.43823e-08
2.44572e-08
2.30651e-08
2.30649e-08
2.3065e-08
2.31398e-08
2.17477e-08
2.17475e-08
2.17475e-08
2.18224e-08
2.04302e-08
2.043e-08
2.043e-08
2.05049e-08
1.91127e-08
1.91125e-08
1.91125e-08
1.91874e-08
1.77952e-08
1.7795e-08
1.7795e-08
1.78699e-08
1.64777e-08
1.64775e-08
1.64775e-08
1.65524e-08
1.51602e-08
1.516e-08
1.516e-08
1.52349e-08
1.38426e-08
1.38424e-08
1.38424e-08
1.39173e-08
1.25251e-08
1.25249e-08
1.25249e-08
1.25998e-08
1.12075e-08
1.12073e-08
1.12074e-08
1.12823e-08
9.89003e-09
9.88985e-09
9.88985e-09
9.96476e-09
8.57255e-09
8.57234e-09
8.57234e-09
8.64725e-09
7.25502e-09
7.25485e-09
7.25485e-09
7.32974e-09
5.93755e-09
5.93735e-09
5.93739e-09
6.01228e-09
4.62018e-09
4.62001e-09
4.62002e-09
4.69477e-09
3.303e-09
3.30283e-09
3.30279e-09
3.37733e-09
1.98708e-09
1.9854e-09
1.98535e-09
2.0606e-09
6.67226e-10
6.93526e-10
6.93486e-10
7.41318e-10
1.29283e-07
1.29502e-07
1.29502e-07
1.29283e-07
1.29502e-07
1.29502e-07
1.29448e-07
1.29448e-07
1.29448e-07
1.29448e-07
1.29502e-07
1.29502e-07
1.29283e-07
1.29502e-07
1.29502e-07
1.29283e-07
1.28723e-07
1.26092e-07
1.28555e-07
1.28555e-07
1.26233e-07
1.26233e-07
1.28723e-07
1.26092e-07
1.28555e-07
1.28555e-07
1.26233e-07
1.26233e-07
1.28555e-07
1.26233e-07
1.26233e-07
1.28723e-07
1.26092e-07
1.28555e-07
1.26233e-07
1.26233e-07
1.26092e-07
1.25752e-07
1.2389e-07
1.25621e-07
1.25621e-07
1.24002e-07
1.24002e-07
1.25752e-07
1.2389e-07
1.25621e-07
1.25621e-07
1.24002e-07
1.24002e-07
1.25621e-07
1.24002e-07
1.24002e-07
1.25752e-07
1.2389e-07
1.25621e-07
1.24002e-07
1.24002e-07
1.2389e-07
1.23619e-07
1.22027e-07
1.2351e-07
1.2351e-07
1.22129e-07
1.22129e-07
1.23619e-07
1.22027e-07
1.2351e-07
1.2351e-07
1.22129e-07
1.22129e-07
1.2351e-07
1.22129e-07
1.22129e-07
1.23619e-07
1.22027e-07
1.2351e-07
1.22129e-07
1.22129e-07
1.22027e-07
1.2179e-07
1.20348e-07
1.21694e-07
1.21694e-07
1.20443e-07
1.20443e-07
1.2179e-07
1.20348e-07
1.21694e-07
1.21694e-07
1.20443e-07
1.20443e-07
1.21694e-07
1.20443e-07
1.20443e-07
1.2179e-07
1.20348e-07
1.21694e-07
1.20443e-07
1.20443e-07
1.20348e-07
1.2013e-07
1.18777e-07
1.20041e-07
1.20041e-07
1.18867e-07
1.18867e-07
1.2013e-07
1.18777e-07
1.20041e-07
1.20041e-07
1.18867e-07
1.18867e-07
1.20041e-07
1.18867e-07
1.18867e-07
1.2013e-07
1.18777e-07
1.20041e-07
1.18867e-07
1.18867e-07
1.18777e-07
1.1857e-07
1.17277e-07
1.18485e-07
1.18485e-07
1.17363e-07
1.17363e-07
1.1857e-07
1.17277e-07
1.18485e-07
1.18485e-07
1.17363e-07
1.17363e-07
1.18485e-07
1.17363e-07
1.17363e-07
1.1857e-07
1.17277e-07
1.18485e-07
1.17363e-07
1.17363e-07
1.17277e-07
1.17078e-07
1.15826e-07
1.16996e-07
1.16996e-07
1.1591e-07
1.1591e-07
1.17078e-07
1.15827e-07
1.16996e-07
1.16996e-07
1.1591e-07
1.1591e-07
1.16996e-07
1.1591e-07
1.1591e-07
1.17078e-07
1.15826e-07
1.16996e-07
1.1591e-07
1.1591e-07
1.15826e-07
1.15632e-07
1.14411e-07
1.15552e-07
1.15552e-07
1.14492e-07
1.14492e-07
1.15633e-07
1.14411e-07
1.15552e-07
1.15552e-07
1.14492e-07
1.14492e-07
1.15552e-07
1.14492e-07
1.14492e-07
1.15632e-07
1.14411e-07
1.15552e-07
1.14492e-07
1.14492e-07
1.14411e-07
1.14221e-07
1.13023e-07
1.14142e-07
1.14142e-07
1.13102e-07
1.13102e-07
1.14221e-07
1.13022e-07
1.14142e-07
1.14142e-07
1.13102e-07
1.13102e-07
1.14142e-07
1.13102e-07
1.13102e-07
1.14221e-07
1.13022e-07
1.14142e-07
1.13102e-07
1.13102e-07
1.13022e-07
1.12835e-07
1.11653e-07
1.12757e-07
1.12757e-07
1.11731e-07
1.11731e-07
1.12835e-07
1.11654e-07
1.12757e-07
1.12757e-07
1.11731e-07
1.11731e-07
1.12757e-07
1.11731e-07
1.11731e-07
1.12835e-07
1.11653e-07
1.12757e-07
1.11731e-07
1.11731e-07
1.11653e-07
1.11468e-07
1.10301e-07
1.11392e-07
1.11392e-07
1.10378e-07
1.10378e-07
1.11468e-07
1.10301e-07
1.11392e-07
1.11392e-07
1.10378e-07
1.10378e-07
1.11392e-07
1.10378e-07
1.10378e-07
1.11468e-07
1.10301e-07
1.11392e-07
1.10378e-07
1.10378e-07
1.10301e-07
1.10118e-07
1.08964e-07
1.10042e-07
1.10042e-07
1.09039e-07
1.09039e-07
1.10118e-07
1.08964e-07
1.10042e-07
1.10042e-07
1.09039e-07
1.09039e-07
1.10042e-07
1.09039e-07
1.09039e-07
1.10118e-07
1.08964e-07
1.10042e-07
1.09039e-07
1.09039e-07
1.08964e-07
1.08782e-07
1.07637e-07
1.08707e-07
1.08707e-07
1.07713e-07
1.07712e-07
1.08782e-07
1.07637e-07
1.08707e-07
1.08707e-07
1.07712e-07
1.07712e-07
1.08707e-07
1.07712e-07
1.07712e-07
1.08782e-07
1.07637e-07
1.08707e-07
1.07712e-07
1.07712e-07
1.07637e-07
1.07457e-07
1.06317e-07
1.07382e-07
1.07382e-07
1.06392e-07
1.06392e-07
1.07457e-07
1.06317e-07
1.07382e-07
1.07382e-07
1.06392e-07
1.06392e-07
1.07382e-07
1.06392e-07
1.06392e-07
1.07457e-07
1.06317e-07
1.07382e-07
1.06392e-07
1.06392e-07
1.06317e-07
1.06137e-07
1.04999e-07
1.06063e-07
1.06063e-07
1.05074e-07
1.05074e-07
1.06138e-07
1.04999e-07
1.06063e-07
1.06063e-07
1.05074e-07
1.05074e-07
1.06063e-07
1.05074e-07
1.05074e-07
1.06138e-07
1.04999e-07
1.06063e-07
1.05074e-07
1.05074e-07
1.04999e-07
1.0482e-07
1.03682e-07
1.04745e-07
1.04745e-07
1.03757e-07
1.03757e-07
1.0482e-07
1.03682e-07
1.04745e-07
1.04745e-07
1.03757e-07
1.03757e-07
1.04745e-07
1.03757e-07
1.03757e-07
1.0482e-07
1.03682e-07
1.04745e-07
1.03757e-07
1.03757e-07
1.03682e-07
1.03503e-07
1.02365e-07
1.03428e-07
1.03428e-07
1.0244e-07
1.0244e-07
1.03503e-07
1.02365e-07
1.03428e-07
1.03428e-07
1.0244e-07
1.0244e-07
1.03428e-07
1.0244e-07
1.0244e-07
1.03503e-07
1.02365e-07
1.03428e-07
1.0244e-07
1.0244e-07
1.02365e-07
1.02185e-07
1.01048e-07
1.0211e-07
1.0211e-07
1.01122e-07
1.01122e-07
1.02185e-07
1.01048e-07
1.0211e-07
1.0211e-07
1.01122e-07
1.01122e-07
1.0211e-07
1.01122e-07
1.01122e-07
1.02185e-07
1.01048e-07
1.0211e-07
1.01122e-07
1.01122e-07
1.01048e-07
1.00868e-07
9.97303e-08
1.00793e-07
1.00793e-07
9.98051e-08
9.98051e-08
1.00868e-07
9.97303e-08
1.00793e-07
1.00793e-07
9.98051e-08
9.98051e-08
1.00793e-07
9.98051e-08
9.98051e-08
1.00868e-07
9.97303e-08
1.00793e-07
9.98051e-08
9.98051e-08
9.97302e-08
9.95507e-08
9.8413e-08
9.94758e-08
9.94758e-08
9.84878e-08
9.84878e-08
9.95507e-08
9.8413e-08
9.94758e-08
9.94758e-08
9.84878e-08
9.84878e-08
9.94758e-08
9.84878e-08
9.84878e-08
9.95507e-08
9.8413e-08
9.94758e-08
9.84878e-08
9.84878e-08
9.8413e-08
9.82334e-08
9.70957e-08
9.81585e-08
9.81585e-08
9.71705e-08
9.71705e-08
9.82334e-08
9.70956e-08
9.81585e-08
9.81585e-08
9.71705e-08
9.71705e-08
9.81585e-08
9.71705e-08
9.71705e-08
9.82334e-08
9.70956e-08
9.81585e-08
9.71705e-08
9.71705e-08
9.70957e-08
9.69161e-08
9.57782e-08
9.68412e-08
9.68411e-08
9.58531e-08
9.58531e-08
9.6916e-08
9.57782e-08
9.68411e-08
9.68412e-08
9.58531e-08
9.58531e-08
9.68412e-08
9.58531e-08
9.58531e-08
9.69161e-08
9.57782e-08
9.68412e-08
9.58531e-08
9.58531e-08
9.57782e-08
9.55986e-08
9.44607e-08
9.55237e-08
9.55237e-08
9.45356e-08
9.45356e-08
9.55986e-08
9.44608e-08
9.55237e-08
9.55237e-08
9.45356e-08
9.45356e-08
9.55237e-08
9.45356e-08
9.45356e-08
9.55986e-08
9.44607e-08
9.55237e-08
9.45356e-08
9.45356e-08
9.44607e-08
9.42811e-08
9.31432e-08
9.42062e-08
9.42062e-08
9.32181e-08
9.3218e-08
9.42811e-08
9.31432e-08
9.42062e-08
9.42062e-08
9.3218e-08
9.32181e-08
9.42062e-08
9.32181e-08
9.32181e-08
9.42811e-08
9.31432e-08
9.42062e-08
9.3218e-08
9.32181e-08
9.31432e-08
9.29636e-08
9.18256e-08
9.28887e-08
9.28887e-08
9.19005e-08
9.19005e-08
9.29636e-08
9.18257e-08
9.28887e-08
9.28887e-08
9.19005e-08
9.19005e-08
9.28887e-08
9.19005e-08
9.19005e-08
9.29636e-08
9.18257e-08
9.28887e-08
9.19005e-08
9.19005e-08
9.18256e-08
9.1646e-08
9.05082e-08
9.15712e-08
9.15712e-08
9.0583e-08
9.05831e-08
9.16461e-08
9.05081e-08
9.15711e-08
9.15712e-08
9.0583e-08
9.0583e-08
9.15711e-08
9.05831e-08
9.0583e-08
9.16461e-08
9.05082e-08
9.15711e-08
9.0583e-08
9.0583e-08
9.05082e-08
9.03286e-08
8.91907e-08
9.02537e-08
9.02537e-08
8.92656e-08
8.92656e-08
9.03285e-08
8.91907e-08
9.02537e-08
9.02537e-08
8.92656e-08
8.92656e-08
9.02537e-08
8.92656e-08
8.92656e-08
9.03286e-08
8.91907e-08
9.02537e-08
8.92656e-08
8.92656e-08
8.91907e-08
8.90111e-08
8.78733e-08
8.89362e-08
8.89362e-08
8.79482e-08
8.79481e-08
8.90111e-08
8.78733e-08
8.89362e-08
8.89362e-08
8.79482e-08
8.79482e-08
8.89362e-08
8.79482e-08
8.79482e-08
8.90111e-08
8.78733e-08
8.89362e-08
8.79481e-08
8.79482e-08
8.78733e-08
8.76937e-08
8.65559e-08
8.76188e-08
8.76188e-08
8.66308e-08
8.66308e-08
8.76937e-08
8.65559e-08
8.76188e-08
8.76188e-08
8.66308e-08
8.66308e-08
8.76188e-08
8.66308e-08
8.66308e-08
8.76937e-08
8.65559e-08
8.76188e-08
8.66308e-08
8.66308e-08
8.65559e-08
8.63763e-08
8.52386e-08
8.63014e-08
8.63014e-08
8.53134e-08
8.53134e-08
8.63764e-08
8.52386e-08
8.63014e-08
8.63014e-08
8.53134e-08
8.53134e-08
8.63015e-08
8.53134e-08
8.53134e-08
8.63764e-08
8.52385e-08
8.63014e-08
8.53134e-08
8.53134e-08
8.52385e-08
8.5059e-08
8.39212e-08
8.49841e-08
8.49841e-08
8.39961e-08
8.39961e-08
8.5059e-08
8.39212e-08
8.49841e-08
8.49841e-08
8.39961e-08
8.3996e-08
8.49841e-08
8.3996e-08
8.39961e-08
8.5059e-08
8.39212e-08
8.49841e-08
8.3996e-08
8.3996e-08
8.39212e-08
8.37416e-08
8.26038e-08
8.36667e-08
8.36667e-08
8.26786e-08
8.26786e-08
8.37416e-08
8.26038e-08
8.36667e-08
8.36667e-08
8.26786e-08
8.26787e-08
8.36667e-08
8.26786e-08
8.26786e-08
8.37416e-08
8.26038e-08
8.36667e-08
8.26786e-08
8.26787e-08
8.26038e-08
8.24242e-08
8.12863e-08
8.23493e-08
8.23493e-08
8.13612e-08
8.13612e-08
8.24242e-08
8.12864e-08
8.23493e-08
8.23493e-08
8.13613e-08
8.13612e-08
8.23493e-08
8.13612e-08
8.13613e-08
8.24242e-08
8.12864e-08
8.23493e-08
8.13613e-08
8.13612e-08
8.12864e-08
8.11068e-08
7.9969e-08
8.10319e-08
8.10319e-08
8.00438e-08
8.00439e-08
8.11068e-08
7.9969e-08
8.10319e-08
8.10319e-08
8.00439e-08
8.00438e-08
8.10319e-08
8.00438e-08
8.00439e-08
8.11068e-08
7.9969e-08
8.10319e-08
8.00439e-08
8.00438e-08
7.9969e-08
7.97894e-08
7.86516e-08
7.97145e-08
7.97145e-08
7.87264e-08
7.87264e-08
7.97894e-08
7.86516e-08
7.97145e-08
7.97145e-08
7.87264e-08
7.87264e-08
7.97145e-08
7.87264e-08
7.87264e-08
7.97894e-08
7.86516e-08
7.97145e-08
7.87264e-08
7.87264e-08
7.86516e-08
7.8472e-08
7.73342e-08
7.83971e-08
7.83971e-08
7.7409e-08
7.7409e-08
7.8472e-08
7.73342e-08
7.83971e-08
7.83971e-08
7.7409e-08
7.7409e-08
7.83971e-08
7.7409e-08
7.7409e-08
7.8472e-08
7.73342e-08
7.83971e-08
7.7409e-08
7.7409e-08
7.73342e-08
7.71546e-08
7.60168e-08
7.70797e-08
7.70797e-08
7.60916e-08
7.60916e-08
7.71546e-08
7.60167e-08
7.70797e-08
7.70797e-08
7.60916e-08
7.60916e-08
7.70797e-08
7.60916e-08
7.60916e-08
7.71546e-08
7.60167e-08
7.70797e-08
7.60916e-08
7.60916e-08
7.60167e-08
7.58372e-08
7.46993e-08
7.57623e-08
7.57622e-08
7.47742e-08
7.47741e-08
7.58371e-08
7.46993e-08
7.57622e-08
7.57622e-08
7.47741e-08
7.47741e-08
7.57622e-08
7.47742e-08
7.47741e-08
7.58371e-08
7.46993e-08
7.57622e-08
7.47741e-08
7.47742e-08
7.46993e-08
7.45196e-08
7.33818e-08
7.44448e-08
7.44448e-08
7.34567e-08
7.34567e-08
7.45197e-08
7.33818e-08
7.44448e-08
7.44448e-08
7.34567e-08
7.34567e-08
7.44448e-08
7.34567e-08
7.34567e-08
7.45197e-08
7.33818e-08
7.44448e-08
7.34567e-08
7.34567e-08
7.33818e-08
7.32022e-08
7.20643e-08
7.31273e-08
7.31273e-08
7.21391e-08
7.21392e-08
7.32022e-08
7.20643e-08
7.31273e-08
7.31273e-08
7.21392e-08
7.21391e-08
7.31273e-08
7.21392e-08
7.21392e-08
7.32022e-08
7.20643e-08
7.31273e-08
7.21392e-08
7.21391e-08
7.20643e-08
7.18847e-08
7.07467e-08
7.18098e-08
7.18098e-08
7.08216e-08
7.08216e-08
7.18846e-08
7.07467e-08
7.18098e-08
7.18098e-08
7.08216e-08
7.08216e-08
7.18098e-08
7.08216e-08
7.08216e-08
7.18847e-08
7.07467e-08
7.18098e-08
7.08216e-08
7.08216e-08
7.07468e-08
7.05671e-08
6.94292e-08
7.04922e-08
7.04922e-08
6.9504e-08
6.95041e-08
7.05671e-08
6.94292e-08
7.04922e-08
7.04922e-08
6.95041e-08
6.9504e-08
7.04922e-08
6.9504e-08
6.9504e-08
7.05671e-08
6.94292e-08
7.04922e-08
6.9504e-08
6.9504e-08
6.94291e-08
6.92495e-08
6.81116e-08
6.91746e-08
6.91747e-08
6.81865e-08
6.81865e-08
6.92495e-08
6.81116e-08
6.91747e-08
6.91747e-08
6.81865e-08
6.81865e-08
6.91746e-08
6.81865e-08
6.81865e-08
6.92496e-08
6.81116e-08
6.91746e-08
6.81865e-08
6.81865e-08
6.81116e-08
6.7932e-08
6.6794e-08
6.78571e-08
6.78571e-08
6.68689e-08
6.68689e-08
6.7932e-08
6.67941e-08
6.78571e-08
6.78571e-08
6.68689e-08
6.68689e-08
6.78571e-08
6.68689e-08
6.68689e-08
6.7932e-08
6.6794e-08
6.78571e-08
6.68689e-08
6.68689e-08
6.67941e-08
6.66144e-08
6.54765e-08
6.65395e-08
6.65395e-08
6.55513e-08
6.55513e-08
6.66144e-08
6.54765e-08
6.65395e-08
6.65395e-08
6.55513e-08
6.55514e-08
6.65395e-08
6.55514e-08
6.55514e-08
6.66144e-08
6.54765e-08
6.65395e-08
6.55513e-08
6.55514e-08
6.54765e-08
6.52969e-08
6.4159e-08
6.5222e-08
6.5222e-08
6.42338e-08
6.42338e-08
6.52968e-08
6.4159e-08
6.5222e-08
6.5222e-08
6.42338e-08
6.42338e-08
6.5222e-08
6.42338e-08
6.42338e-08
6.52969e-08
6.4159e-08
6.5222e-08
6.42338e-08
6.42338e-08
6.41589e-08
6.39793e-08
6.28415e-08
6.39044e-08
6.39044e-08
6.29163e-08
6.29163e-08
6.39793e-08
6.28414e-08
6.39045e-08
6.39044e-08
6.29163e-08
6.29163e-08
6.39044e-08
6.29163e-08
6.29163e-08
6.39794e-08
6.28415e-08
6.39044e-08
6.29163e-08
6.29163e-08
6.28414e-08
6.26619e-08
6.1524e-08
6.25869e-08
6.25869e-08
6.15989e-08
6.15989e-08
6.26619e-08
6.1524e-08
6.25869e-08
6.2587e-08
6.15989e-08
6.15989e-08
6.25869e-08
6.15988e-08
6.15989e-08
6.26619e-08
6.1524e-08
6.2587e-08
6.15989e-08
6.15988e-08
6.1524e-08
6.13444e-08
6.02066e-08
6.12695e-08
6.12695e-08
6.02814e-08
6.02815e-08
6.13444e-08
6.02066e-08
6.12695e-08
6.12695e-08
6.02814e-08
6.02814e-08
6.12695e-08
6.02815e-08
6.02814e-08
6.13444e-08
6.02066e-08
6.12695e-08
6.02814e-08
6.02814e-08
6.02066e-08
6.0027e-08
5.88892e-08
5.99521e-08
5.99521e-08
5.89641e-08
5.8964e-08
6.0027e-08
5.88892e-08
5.99521e-08
5.99521e-08
5.89641e-08
5.89641e-08
5.99521e-08
5.89641e-08
5.89641e-08
6.0027e-08
5.88892e-08
5.99521e-08
5.89641e-08
5.89641e-08
5.88892e-08
5.87096e-08
5.75718e-08
5.86347e-08
5.86347e-08
5.76467e-08
5.76467e-08
5.87096e-08
5.75719e-08
5.86347e-08
5.86347e-08
5.76467e-08
5.76467e-08
5.86347e-08
5.76467e-08
5.76467e-08
5.87096e-08
5.75718e-08
5.86347e-08
5.76467e-08
5.76467e-08
5.75718e-08
5.73922e-08
5.62545e-08
5.73174e-08
5.73174e-08
5.63293e-08
5.63294e-08
5.73923e-08
5.62545e-08
5.73173e-08
5.73173e-08
5.63294e-08
5.63294e-08
5.73174e-08
5.63293e-08
5.63293e-08
5.73923e-08
5.62545e-08
5.73174e-08
5.63294e-08
5.63293e-08
5.62545e-08
5.60749e-08
5.49372e-08
5.6e-08
5.6e-08
5.5012e-08
5.5012e-08
5.60749e-08
5.49372e-08
5.6e-08
5.6e-08
5.5012e-08
5.5012e-08
5.6e-08
5.5012e-08
5.5012e-08
5.60749e-08
5.49372e-08
5.6e-08
5.5012e-08
5.5012e-08
5.49372e-08
5.47576e-08
5.36199e-08
5.46827e-08
5.46827e-08
5.36948e-08
5.36947e-08
5.47576e-08
5.36199e-08
5.46827e-08
5.46827e-08
5.36947e-08
5.36948e-08
5.46827e-08
5.36948e-08
5.36947e-08
5.47576e-08
5.36199e-08
5.46827e-08
5.36947e-08
5.36948e-08
5.36199e-08
5.34403e-08
5.23026e-08
5.33654e-08
5.33654e-08
5.23775e-08
5.23775e-08
5.34403e-08
5.23026e-08
5.33654e-08
5.33654e-08
5.23775e-08
5.23775e-08
5.33654e-08
5.23774e-08
5.23775e-08
5.34403e-08
5.23026e-08
5.33655e-08
5.23775e-08
5.23775e-08
5.23026e-08
5.2123e-08
5.09853e-08
5.20481e-08
5.20481e-08
5.10601e-08
5.10602e-08
5.2123e-08
5.09853e-08
5.20482e-08
5.20481e-08
5.10601e-08
5.10602e-08
5.20482e-08
5.10602e-08
5.10602e-08
5.2123e-08
5.09853e-08
5.20481e-08
5.10602e-08
5.10602e-08
5.09853e-08
5.08057e-08
4.9668e-08
5.07308e-08
5.07308e-08
4.97428e-08
4.97428e-08
5.08057e-08
4.9668e-08
5.07308e-08
5.07308e-08
4.97428e-08
4.97428e-08
5.07308e-08
4.97428e-08
4.97428e-08
5.08058e-08
4.96679e-08
5.07308e-08
4.97428e-08
4.97428e-08
4.96679e-08
4.94883e-08
4.83506e-08
4.94135e-08
4.94135e-08
4.84254e-08
4.84254e-08
4.94884e-08
4.83506e-08
4.94135e-08
4.94134e-08
4.84254e-08
4.84254e-08
4.94135e-08
4.84254e-08
4.84254e-08
4.94883e-08
4.83505e-08
4.94134e-08
4.84254e-08
4.84254e-08
4.83505e-08
4.8171e-08
4.70331e-08
4.80961e-08
4.8096e-08
4.7108e-08
4.7108e-08
4.8171e-08
4.70331e-08
4.80961e-08
4.80961e-08
4.7108e-08
4.7108e-08
4.8096e-08
4.7108e-08
4.7108e-08
4.81709e-08
4.70331e-08
4.80961e-08
4.7108e-08
4.7108e-08
4.70331e-08
4.68535e-08
4.57157e-08
4.67786e-08
4.67786e-08
4.57905e-08
4.57905e-08
4.68535e-08
4.57157e-08
4.67786e-08
4.67786e-08
4.57905e-08
4.57906e-08
4.67786e-08
4.57906e-08
4.57905e-08
4.68536e-08
4.57157e-08
4.67786e-08
4.57905e-08
4.57906e-08
4.57157e-08
4.55361e-08
4.43982e-08
4.54612e-08
4.54612e-08
4.4473e-08
4.4473e-08
4.55361e-08
4.43981e-08
4.54612e-08
4.54612e-08
4.4473e-08
4.4473e-08
4.54612e-08
4.4473e-08
4.4473e-08
4.55361e-08
4.43981e-08
4.54612e-08
4.4473e-08
4.4473e-08
4.43982e-08
4.42185e-08
4.30805e-08
4.41436e-08
4.41436e-08
4.31554e-08
4.31554e-08
4.42185e-08
4.30806e-08
4.41437e-08
4.41436e-08
4.31554e-08
4.31554e-08
4.41437e-08
4.31554e-08
4.31554e-08
4.42185e-08
4.30805e-08
4.41436e-08
4.31554e-08
4.31554e-08
4.30805e-08
4.29009e-08
4.17629e-08
4.2826e-08
4.2826e-08
4.18378e-08
4.18377e-08
4.29009e-08
4.17628e-08
4.2826e-08
4.2826e-08
4.18377e-08
4.18378e-08
4.2826e-08
4.18377e-08
4.18377e-08
4.29009e-08
4.17628e-08
4.2826e-08
4.18377e-08
4.18378e-08
4.17629e-08
4.15832e-08
4.04452e-08
4.15083e-08
4.15083e-08
4.05201e-08
4.05201e-08
4.15832e-08
4.04452e-08
4.15083e-08
4.15083e-08
4.05201e-08
4.05201e-08
4.15083e-08
4.05201e-08
4.05201e-08
4.15832e-08
4.04452e-08
4.15083e-08
4.05201e-08
4.05201e-08
4.04452e-08
4.02655e-08
3.91276e-08
4.01906e-08
4.01907e-08
3.92024e-08
3.92024e-08
4.02656e-08
3.91275e-08
4.01906e-08
4.01907e-08
3.92024e-08
3.92024e-08
4.01907e-08
3.92024e-08
3.92024e-08
4.02656e-08
3.91276e-08
4.01907e-08
3.92024e-08
3.92024e-08
3.91275e-08
3.89479e-08
3.781e-08
3.8873e-08
3.8873e-08
3.78849e-08
3.78849e-08
3.89479e-08
3.781e-08
3.88731e-08
3.8873e-08
3.78849e-08
3.78849e-08
3.88731e-08
3.78849e-08
3.78849e-08
3.89479e-08
3.781e-08
3.8873e-08
3.78849e-08
3.78849e-08
3.781e-08
3.76304e-08
3.64925e-08
3.75555e-08
3.75555e-08
3.65674e-08
3.65674e-08
3.76304e-08
3.64925e-08
3.75555e-08
3.75555e-08
3.65674e-08
3.65674e-08
3.75555e-08
3.65674e-08
3.65674e-08
3.76304e-08
3.64925e-08
3.75555e-08
3.65674e-08
3.65674e-08
3.64925e-08
3.63129e-08
3.51751e-08
3.6238e-08
3.6238e-08
3.525e-08
3.525e-08
3.63129e-08
3.51751e-08
3.6238e-08
3.6238e-08
3.525e-08
3.52499e-08
3.6238e-08
3.52499e-08
3.525e-08
3.63129e-08
3.51751e-08
3.6238e-08
3.525e-08
3.525e-08
3.51751e-08
3.49955e-08
3.38577e-08
3.49206e-08
3.49206e-08
3.39326e-08
3.39326e-08
3.49955e-08
3.38578e-08
3.49206e-08
3.49206e-08
3.39326e-08
3.39326e-08
3.49206e-08
3.39326e-08
3.39326e-08
3.49955e-08
3.38577e-08
3.49206e-08
3.39326e-08
3.39326e-08
3.38577e-08
3.36782e-08
3.25404e-08
3.36032e-08
3.36033e-08
3.26153e-08
3.26153e-08
3.36782e-08
3.25404e-08
3.36033e-08
3.36033e-08
3.26153e-08
3.26153e-08
3.36033e-08
3.26153e-08
3.26153e-08
3.36781e-08
3.25404e-08
3.36033e-08
3.26153e-08
3.26153e-08
3.25404e-08
3.23609e-08
3.12231e-08
3.2286e-08
3.2286e-08
3.1298e-08
3.1298e-08
3.23608e-08
3.12231e-08
3.2286e-08
3.22859e-08
3.1298e-08
3.1298e-08
3.2286e-08
3.1298e-08
3.1298e-08
3.23608e-08
3.12231e-08
3.22859e-08
3.1298e-08
3.1298e-08
3.12231e-08
3.10436e-08
2.99059e-08
3.09687e-08
3.09687e-08
2.99807e-08
2.99807e-08
3.10436e-08
2.99059e-08
3.09687e-08
3.09687e-08
2.99807e-08
2.99807e-08
3.09687e-08
2.99807e-08
2.99807e-08
3.10436e-08
2.99059e-08
3.09687e-08
2.99807e-08
2.99807e-08
2.99059e-08
2.97263e-08
2.85887e-08
2.96514e-08
2.96514e-08
2.86635e-08
2.86635e-08
2.97263e-08
2.85887e-08
2.96514e-08
2.96514e-08
2.86635e-08
2.86635e-08
2.96514e-08
2.86635e-08
2.86635e-08
2.97263e-08
2.85887e-08
2.96514e-08
2.86635e-08
2.86635e-08
2.85887e-08
2.84091e-08
2.72714e-08
2.83342e-08
2.83342e-08
2.73463e-08
2.73463e-08
2.84091e-08
2.72714e-08
2.83342e-08
2.83342e-08
2.73463e-08
2.73463e-08
2.83342e-08
2.73463e-08
2.73463e-08
2.84091e-08
2.72714e-08
2.83342e-08
2.73463e-08
2.73463e-08
2.72714e-08
2.70918e-08
2.59541e-08
2.70169e-08
2.70169e-08
2.6029e-08
2.6029e-08
2.70918e-08
2.59541e-08
2.7017e-08
2.7017e-08
2.6029e-08
2.6029e-08
2.70169e-08
2.6029e-08
2.6029e-08
2.70919e-08
2.59541e-08
2.70169e-08
2.6029e-08
2.6029e-08
2.59541e-08
2.57745e-08
2.46368e-08
2.56997e-08
2.56996e-08
2.47117e-08
2.47117e-08
2.57745e-08
2.46368e-08
2.56996e-08
2.56997e-08
2.47117e-08
2.47116e-08
2.56996e-08
2.47117e-08
2.47117e-08
2.57745e-08
2.46368e-08
2.56997e-08
2.47116e-08
2.47117e-08
2.46368e-08
2.44572e-08
2.33194e-08
2.43823e-08
2.43823e-08
2.33943e-08
2.33943e-08
2.44572e-08
2.33194e-08
2.43823e-08
2.43823e-08
2.33943e-08
2.33943e-08
2.43823e-08
2.33943e-08
2.33943e-08
2.44572e-08
2.33195e-08
2.43823e-08
2.33943e-08
2.33943e-08
2.33194e-08
2.31398e-08
2.2002e-08
2.30649e-08
2.3065e-08
2.20768e-08
2.20768e-08
2.31398e-08
2.2002e-08
2.3065e-08
2.30649e-08
2.20768e-08
2.20768e-08
2.30649e-08
2.20768e-08
2.20768e-08
2.31399e-08
2.2002e-08
2.30649e-08
2.20768e-08
2.20768e-08
2.2002e-08
2.18224e-08
2.06845e-08
2.17475e-08
2.17475e-08
2.07594e-08
2.07594e-08
2.18224e-08
2.06845e-08
2.17475e-08
2.17475e-08
2.07593e-08
2.07593e-08
2.17475e-08
2.07594e-08
2.07593e-08
2.18224e-08
2.06845e-08
2.17475e-08
2.07593e-08
2.07594e-08
2.06845e-08
2.05049e-08
1.9367e-08
2.043e-08
2.043e-08
1.94418e-08
1.94418e-08
2.05049e-08
1.9367e-08
2.043e-08
2.043e-08
1.94418e-08
1.94418e-08
2.043e-08
1.94418e-08
1.94418e-08
2.05049e-08
1.9367e-08
2.043e-08
1.94418e-08
1.94418e-08
1.9367e-08
1.91874e-08
1.80495e-08
1.91125e-08
1.91125e-08
1.81244e-08
1.81244e-08
1.91874e-08
1.80495e-08
1.91125e-08
1.91125e-08
1.81244e-08
1.81244e-08
1.91125e-08
1.81244e-08
1.81244e-08
1.91874e-08
1.80495e-08
1.91125e-08
1.81243e-08
1.81244e-08
1.80495e-08
1.78699e-08
1.6732e-08
1.7795e-08
1.7795e-08
1.68069e-08
1.68069e-08
1.78699e-08
1.6732e-08
1.7795e-08
1.7795e-08
1.68069e-08
1.68069e-08
1.7795e-08
1.68069e-08
1.68069e-08
1.78699e-08
1.6732e-08
1.7795e-08
1.68069e-08
1.68069e-08
1.6732e-08
1.65524e-08
1.54145e-08
1.64775e-08
1.64775e-08
1.54894e-08
1.54894e-08
1.65524e-08
1.54145e-08
1.64775e-08
1.64775e-08
1.54894e-08
1.54894e-08
1.64775e-08
1.54894e-08
1.54894e-08
1.65524e-08
1.54145e-08
1.64775e-08
1.54894e-08
1.54894e-08
1.54145e-08
1.52349e-08
1.4097e-08
1.516e-08
1.516e-08
1.41718e-08
1.41718e-08
1.52349e-08
1.4097e-08
1.516e-08
1.516e-08
1.41718e-08
1.41718e-08
1.516e-08
1.41718e-08
1.41718e-08
1.52349e-08
1.40969e-08
1.516e-08
1.41718e-08
1.41718e-08
1.40969e-08
1.39173e-08
1.27794e-08
1.38424e-08
1.38424e-08
1.28543e-08
1.28543e-08
1.39173e-08
1.27794e-08
1.38424e-08
1.38424e-08
1.28543e-08
1.28543e-08
1.38424e-08
1.28543e-08
1.28542e-08
1.39173e-08
1.27794e-08
1.38424e-08
1.28543e-08
1.28542e-08
1.27794e-08
1.25998e-08
1.14618e-08
1.25249e-08
1.25249e-08
1.15367e-08
1.15367e-08
1.25998e-08
1.14619e-08
1.25249e-08
1.25249e-08
1.15367e-08
1.15367e-08
1.25249e-08
1.15367e-08
1.15367e-08
1.25998e-08
1.14619e-08
1.25249e-08
1.15367e-08
1.15367e-08
1.14619e-08
1.12822e-08
1.01444e-08
1.12073e-08
1.12073e-08
1.02192e-08
1.02192e-08
1.12822e-08
1.01444e-08
1.12074e-08
1.12074e-08
1.02192e-08
1.02192e-08
1.12073e-08
1.02192e-08
1.02192e-08
1.12823e-08
1.01444e-08
1.12073e-08
1.02192e-08
1.02192e-08
1.01443e-08
9.96476e-09
8.82688e-09
9.88986e-09
9.88985e-09
8.90174e-09
8.90171e-09
9.96476e-09
8.82686e-09
9.88984e-09
9.88986e-09
8.90173e-09
8.90173e-09
9.88985e-09
8.90172e-09
8.90172e-09
9.96475e-09
8.82684e-09
9.88985e-09
8.90172e-09
8.90172e-09
8.82685e-09
8.64725e-09
7.50933e-09
8.57236e-09
8.57234e-09
7.58421e-09
7.58421e-09
8.64725e-09
7.50935e-09
8.57237e-09
8.57234e-09
7.58421e-09
7.58421e-09
8.57234e-09
7.58421e-09
7.58419e-09
8.64724e-09
7.50934e-09
8.57234e-09
7.58421e-09
7.58419e-09
7.50932e-09
7.32973e-09
6.19181e-09
7.25485e-09
7.25484e-09
6.26667e-09
6.26667e-09
7.32973e-09
6.19179e-09
7.25485e-09
7.25484e-09
6.26668e-09
6.26671e-09
7.25483e-09
6.26669e-09
6.26671e-09
7.32974e-09
6.19185e-09
7.25484e-09
6.26671e-09
6.26673e-09
6.19187e-09
6.01221e-09
4.87433e-09
5.93734e-09
5.93733e-09
4.9492e-09
4.94922e-09
6.01219e-09
4.87435e-09
5.93735e-09
5.93739e-09
4.9492e-09
4.94923e-09
5.9374e-09
4.94921e-09
4.94925e-09
6.01226e-09
4.87436e-09
5.93741e-09
4.94924e-09
4.94923e-09
4.87433e-09
4.69477e-09
3.5569e-09
4.61999e-09
4.62001e-09
3.63179e-09
3.63179e-09
4.69478e-09
3.5569e-09
4.62e-09
4.62001e-09
3.63177e-09
3.63175e-09
4.62002e-09
3.63177e-09
3.63175e-09
4.69478e-09
3.55685e-09
4.62001e-09
3.63175e-09
3.63175e-09
3.55684e-09
3.37738e-09
2.23938e-09
3.30285e-09
3.30285e-09
2.3137e-09
2.3137e-09
3.37736e-09
2.23939e-09
3.30283e-09
3.30279e-09
2.31369e-09
2.31366e-09
3.30279e-09
2.31369e-09
2.31365e-09
3.37732e-09
2.23935e-09
3.30279e-09
2.31365e-09
2.31364e-09
2.23934e-09
2.06063e-09
9.23535e-10
1.98542e-09
1.98541e-09
1.00868e-09
1.0087e-09
2.06062e-09
9.23539e-10
1.98539e-09
1.98539e-09
1.00877e-09
1.00868e-09
1.98537e-09
1.00874e-09
1.00863e-09
2.06059e-09
9.23498e-10
1.98536e-09
1.00869e-09
1.00875e-09
9.23497e-10
7.41366e-10
6.93441e-10
6.9347e-10
7.41358e-10
6.93572e-10
6.93447e-10
6.67219e-10
6.67219e-10
6.67219e-10
6.93395e-10
7.41314e-10
6.93555e-10
1.29965e-07
1.30587e-07
1.30253e-07
1.30253e-07
1.32001e-07
1.30846e-07
1.33385e-07
1.30476e-07
1.32001e-07
1.30846e-07
1.30476e-07
1.33385e-07
1.3114e-07
1.33854e-07
1.33854e-07
1.27307e-07
1.28482e-07
1.28573e-07
1.27264e-07
1.28464e-07
1.27249e-07
1.27306e-07
1.28482e-07
1.28573e-07
1.27264e-07
1.28621e-07
1.28621e-07
1.28621e-07
1.26329e-07
1.26329e-07
1.26329e-07
1.26329e-07
1.27368e-07
1.28584e-07
1.28597e-07
1.27685e-07
1.28653e-07
1.27313e-07
1.2774e-07
1.28464e-07
1.27249e-07
1.27368e-07
1.28597e-07
1.28584e-07
1.27685e-07
1.28653e-07
1.27739e-07
1.27313e-07
1.28557e-07
1.28557e-07
1.27485e-07
1.27293e-07
1.27293e-07
1.24871e-07
1.25679e-07
1.25699e-07
1.24857e-07
1.25673e-07
1.24852e-07
1.24871e-07
1.25679e-07
1.25699e-07
1.24857e-07
1.25697e-07
1.25697e-07
1.25697e-07
1.24035e-07
1.24035e-07
1.24035e-07
1.24035e-07
1.24887e-07
1.25696e-07
1.25649e-07
1.25052e-07