/*--------------------------------*- C++ -*----------------------------------*\
| =========                 |                                                 |
| \\      /  F ield         | OpenFOAM: The Open Source CFD Toolbox           |
|  \\    /   O peration     | Version:  v2012                                 |
|   \\  /    A nd           | Website:  www.openfoam.com                      |
|    \\/     M anipulation  |                                                 |
\*---------------------------------------------------------------------------*/
FoamFile
{
    version     2.0;
    format      ascii;
    class       volScalarField;
    location    "75000";
    object      p;
}
// * * * * * * * * * * * * * * * * * * * * * * * * * * * * * * * * * * * * * //

dimensions      [0 2 -2 0 0 0 0];


internalField   nonuniform List<scalar> 
169728
(
1.27551e-07
1.27484e-07
1.27484e-07
1.27653e-07
1.24627e-07
1.2455e-07
1.2455e-07
1.24682e-07
1.22465e-07
1.2244e-07
1.2244e-07
1.22549e-07
1.20632e-07
1.20625e-07
1.20625e-07
1.20721e-07
1.18971e-07
1.18971e-07
1.18971e-07
1.19061e-07
1.17414e-07
1.17416e-07
1.17416e-07
1.17501e-07
1.15924e-07
1.15927e-07
1.15927e-07
1.16009e-07
1.14481e-07
1.14483e-07
1.14483e-07
1.14564e-07
1.13072e-07
1.13074e-07
1.13074e-07
1.13152e-07
1.11688e-07
1.11689e-07
1.11689e-07
1.11767e-07
1.10322e-07
1.10323e-07
1.10323e-07
1.104e-07
1.08971e-07
1.08972e-07
1.08972e-07
1.09048e-07
1.07631e-07
1.07631e-07
1.07631e-07
1.07707e-07
1.06299e-07
1.06299e-07
1.06299e-07
1.06374e-07
1.04973e-07
1.04974e-07
1.04974e-07
1.05049e-07
1.03653e-07
1.03653e-07
1.03653e-07
1.03728e-07
1.02337e-07
1.02337e-07
1.02337e-07
1.02411e-07
1.01023e-07
1.01023e-07
1.01023e-07
1.01098e-07
9.97121e-08
9.97121e-08
9.97121e-08
9.97865e-08
9.8403e-08
9.84029e-08
9.84029e-08
9.84772e-08
9.70953e-08
9.70952e-08
9.70952e-08
9.71695e-08
9.57887e-08
9.57887e-08
9.57887e-08
9.58629e-08
9.44831e-08
9.4483e-08
9.4483e-08
9.45571e-08
9.3178e-08
9.3178e-08
9.3178e-08
9.32521e-08
9.18736e-08
9.18735e-08
9.18735e-08
9.19476e-08
9.05696e-08
9.05695e-08
9.05694e-08
9.06435e-08
8.92659e-08
8.92658e-08
8.92658e-08
8.93399e-08
8.79626e-08
8.79624e-08
8.79624e-08
8.80365e-08
8.66594e-08
8.66593e-08
8.66592e-08
8.67333e-08
8.53563e-08
8.53562e-08
8.53562e-08
8.54303e-08
8.40533e-08
8.40532e-08
8.40532e-08
8.41272e-08
8.27503e-08
8.27502e-08
8.27502e-08
8.28242e-08
8.14473e-08
8.14471e-08
8.14471e-08
8.15212e-08
8.01442e-08
8.01441e-08
8.01441e-08
8.02182e-08
7.88411e-08
7.8841e-08
7.8841e-08
7.8915e-08
7.75381e-08
7.75378e-08
7.75378e-08
7.76119e-08
7.62349e-08
7.62347e-08
7.62347e-08
7.63088e-08
7.49318e-08
7.49316e-08
7.49316e-08
7.50057e-08
7.36288e-08
7.36286e-08
7.36286e-08
7.37026e-08
7.23257e-08
7.23256e-08
7.23256e-08
7.23996e-08
7.10227e-08
7.10225e-08
7.10225e-08
7.10966e-08
6.97197e-08
6.97195e-08
6.97195e-08
6.97936e-08
6.84166e-08
6.84165e-08
6.84165e-08
6.84905e-08
6.71136e-08
6.71134e-08
6.71134e-08
6.71875e-08
6.58105e-08
6.58104e-08
6.58104e-08
6.58845e-08
6.45076e-08
6.45074e-08
6.45074e-08
6.45815e-08
6.32045e-08
6.32044e-08
6.32044e-08
6.32784e-08
6.19015e-08
6.19014e-08
6.19014e-08
6.19754e-08
6.05985e-08
6.05983e-08
6.05983e-08
6.06724e-08
5.92955e-08
5.92953e-08
5.92953e-08
5.93694e-08
5.79925e-08
5.79923e-08
5.79923e-08
5.80663e-08
5.66894e-08
5.66893e-08
5.66893e-08
5.67633e-08
5.53864e-08
5.53862e-08
5.53862e-08
5.54602e-08
5.40832e-08
5.40831e-08
5.40831e-08
5.41571e-08
5.27801e-08
5.278e-08
5.27799e-08
5.2854e-08
5.14771e-08
5.14769e-08
5.14769e-08
5.15509e-08
5.0174e-08
5.01739e-08
5.01739e-08
5.02479e-08
4.8871e-08
4.88708e-08
4.88709e-08
4.89449e-08
4.75679e-08
4.75678e-08
4.75678e-08
4.76418e-08
4.62649e-08
4.62647e-08
4.62647e-08
4.63388e-08
4.49619e-08
4.49617e-08
4.49617e-08
4.50357e-08
4.36589e-08
4.36587e-08
4.36587e-08
4.37328e-08
4.23558e-08
4.23557e-08
4.23557e-08
4.24297e-08
4.10528e-08
4.10526e-08
4.10526e-08
4.11267e-08
3.97497e-08
3.97496e-08
3.97496e-08
3.98236e-08
3.84468e-08
3.84465e-08
3.84466e-08
3.85206e-08
3.71438e-08
3.71436e-08
3.71436e-08
3.72177e-08
3.58408e-08
3.58406e-08
3.58406e-08
3.59147e-08
3.45378e-08
3.45376e-08
3.45376e-08
3.46116e-08
3.32348e-08
3.32346e-08
3.32346e-08
3.33087e-08
3.19318e-08
3.19316e-08
3.19316e-08
3.20056e-08
3.06288e-08
3.06286e-08
3.06286e-08
3.07026e-08
2.93258e-08
2.93256e-08
2.93256e-08
2.93996e-08
2.80227e-08
2.80225e-08
2.80225e-08
2.80966e-08
2.67197e-08
2.67195e-08
2.67195e-08
2.67936e-08
2.54167e-08
2.54165e-08
2.54165e-08
2.54906e-08
2.41137e-08
2.41136e-08
2.41135e-08
2.41876e-08
2.28107e-08
2.28106e-08
2.28106e-08
2.28846e-08
2.15077e-08
2.15075e-08
2.15075e-08
2.15816e-08
2.02047e-08
2.02045e-08
2.02045e-08
2.02786e-08
1.89017e-08
1.89015e-08
1.89015e-08
1.89756e-08
1.75986e-08
1.75985e-08
1.75984e-08
1.76725e-08
1.62956e-08
1.62954e-08
1.62954e-08
1.63694e-08
1.49925e-08
1.49923e-08
1.49923e-08
1.50664e-08
1.36895e-08
1.36893e-08
1.36893e-08
1.37634e-08
1.23864e-08
1.23863e-08
1.23863e-08
1.24604e-08
1.10834e-08
1.10832e-08
1.10833e-08
1.11573e-08
9.78038e-09
9.7802e-09
9.78016e-09
9.85423e-09
8.47736e-09
8.47716e-09
8.47707e-09
8.55113e-09
7.17432e-09
7.17414e-09
7.17407e-09
7.2481e-09
5.87134e-09
5.87115e-09
5.87112e-09
5.94514e-09
4.56834e-09
4.56819e-09
4.56819e-09
4.64209e-09
3.2654e-09
3.26523e-09
3.26529e-09
3.33896e-09
1.96374e-09
1.96205e-09
1.96212e-09
2.03651e-09
6.5896e-10
6.84203e-10
6.8431e-10
7.31325e-10
1.28213e-07
1.28432e-07
1.28432e-07
1.28213e-07
1.28432e-07
1.28432e-07
1.28378e-07
1.28378e-07
1.28378e-07
1.28378e-07
1.28432e-07
1.28432e-07
1.28213e-07
1.28432e-07
1.28432e-07
1.28213e-07
1.27653e-07
1.25022e-07
1.27484e-07
1.27484e-07
1.25163e-07
1.25163e-07
1.27653e-07
1.25022e-07
1.27484e-07
1.27484e-07
1.25163e-07
1.25163e-07
1.27484e-07
1.25163e-07
1.25163e-07
1.27653e-07
1.25022e-07
1.27484e-07
1.25163e-07
1.25163e-07
1.25022e-07
1.24682e-07
1.2282e-07
1.2455e-07
1.2455e-07
1.22932e-07
1.22932e-07
1.24682e-07
1.2282e-07
1.2455e-07
1.2455e-07
1.22932e-07
1.22932e-07
1.2455e-07
1.22932e-07
1.22932e-07
1.24682e-07
1.2282e-07
1.2455e-07
1.22932e-07
1.22932e-07
1.2282e-07
1.22549e-07
1.20958e-07
1.2244e-07
1.2244e-07
1.2106e-07
1.2106e-07
1.22549e-07
1.20958e-07
1.2244e-07
1.2244e-07
1.2106e-07
1.2106e-07
1.2244e-07
1.2106e-07
1.2106e-07
1.22549e-07
1.20958e-07
1.2244e-07
1.2106e-07
1.2106e-07
1.20958e-07
1.20721e-07
1.19279e-07
1.20625e-07
1.20625e-07
1.19373e-07
1.19373e-07
1.20721e-07
1.19279e-07
1.20625e-07
1.20625e-07
1.19373e-07
1.19373e-07
1.20625e-07
1.19373e-07
1.19373e-07
1.20721e-07
1.19279e-07
1.20625e-07
1.19373e-07
1.19373e-07
1.19279e-07
1.19061e-07
1.17708e-07
1.18971e-07
1.18971e-07
1.17798e-07
1.17798e-07
1.19061e-07
1.17708e-07
1.18971e-07
1.18971e-07
1.17798e-07
1.17798e-07
1.18971e-07
1.17798e-07
1.17798e-07
1.19061e-07
1.17708e-07
1.18971e-07
1.17798e-07
1.17798e-07
1.17708e-07
1.17501e-07
1.16208e-07
1.17416e-07
1.17416e-07
1.16294e-07
1.16294e-07
1.17501e-07
1.16208e-07
1.17416e-07
1.17416e-07
1.16294e-07
1.16294e-07
1.17416e-07
1.16294e-07
1.16294e-07
1.17501e-07
1.16208e-07
1.17416e-07
1.16294e-07
1.16294e-07
1.16208e-07
1.16009e-07
1.14758e-07
1.15927e-07
1.15927e-07
1.14841e-07
1.14841e-07
1.16009e-07
1.14758e-07
1.15927e-07
1.15927e-07
1.14841e-07
1.14841e-07
1.15927e-07
1.14841e-07
1.14841e-07
1.16009e-07
1.14758e-07
1.15927e-07
1.14841e-07
1.14841e-07
1.14758e-07
1.14564e-07
1.13343e-07
1.14483e-07
1.14483e-07
1.13423e-07
1.13423e-07
1.14564e-07
1.13343e-07
1.14483e-07
1.14483e-07
1.13423e-07
1.13423e-07
1.14483e-07
1.13423e-07
1.13423e-07
1.14564e-07
1.13343e-07
1.14483e-07
1.13423e-07
1.13423e-07
1.13343e-07
1.13152e-07
1.11954e-07
1.13074e-07
1.13074e-07
1.12033e-07
1.12033e-07
1.13152e-07
1.11954e-07
1.13074e-07
1.13074e-07
1.12033e-07
1.12033e-07
1.13074e-07
1.12033e-07
1.12033e-07
1.13152e-07
1.11954e-07
1.13074e-07
1.12033e-07
1.12033e-07
1.11954e-07
1.11767e-07
1.10585e-07
1.11689e-07
1.11689e-07
1.10663e-07
1.10663e-07
1.11767e-07
1.10585e-07
1.11689e-07
1.11689e-07
1.10663e-07
1.10663e-07
1.11689e-07
1.10663e-07
1.10663e-07
1.11767e-07
1.10585e-07
1.11689e-07
1.10663e-07
1.10663e-07
1.10585e-07
1.104e-07
1.09231e-07
1.10323e-07
1.10323e-07
1.09308e-07
1.09308e-07
1.104e-07
1.09231e-07
1.10323e-07
1.10323e-07
1.09308e-07
1.09308e-07
1.10323e-07
1.09308e-07
1.09308e-07
1.104e-07
1.09231e-07
1.10323e-07
1.09308e-07
1.09308e-07
1.09231e-07
1.09048e-07
1.07889e-07
1.08972e-07
1.08972e-07
1.07965e-07
1.07965e-07
1.09048e-07
1.07889e-07
1.08972e-07
1.08972e-07
1.07965e-07
1.07965e-07
1.08972e-07
1.07965e-07
1.07965e-07
1.09048e-07
1.07889e-07
1.08972e-07
1.07965e-07
1.07965e-07
1.07889e-07
1.07707e-07
1.06556e-07
1.07631e-07
1.07631e-07
1.06631e-07
1.06631e-07
1.07707e-07
1.06556e-07
1.07631e-07
1.07631e-07
1.06631e-07
1.06631e-07
1.07631e-07
1.06631e-07
1.06631e-07
1.07707e-07
1.06556e-07
1.07631e-07
1.06631e-07
1.06631e-07
1.06556e-07
1.06374e-07
1.05229e-07
1.06299e-07
1.06299e-07
1.05304e-07
1.05304e-07
1.06374e-07
1.05229e-07
1.06299e-07
1.06299e-07
1.05304e-07
1.05304e-07
1.06299e-07
1.05304e-07
1.05304e-07
1.06374e-07
1.05229e-07
1.06299e-07
1.05304e-07
1.05304e-07
1.05229e-07
1.05049e-07
1.03908e-07
1.04974e-07
1.04974e-07
1.03983e-07
1.03983e-07
1.05049e-07
1.03908e-07
1.04974e-07
1.04974e-07
1.03983e-07
1.03983e-07
1.04974e-07
1.03983e-07
1.03983e-07
1.05049e-07
1.03908e-07
1.04974e-07
1.03983e-07
1.03983e-07
1.03908e-07
1.03728e-07
1.02591e-07
1.03653e-07
1.03653e-07
1.02665e-07
1.02665e-07
1.03728e-07
1.02591e-07
1.03653e-07
1.03653e-07
1.02665e-07
1.02665e-07
1.03653e-07
1.02665e-07
1.02665e-07
1.03728e-07
1.02591e-07
1.03653e-07
1.02665e-07
1.02665e-07
1.02591e-07
1.02411e-07
1.01277e-07
1.02337e-07
1.02337e-07
1.01351e-07
1.01351e-07
1.02411e-07
1.01277e-07
1.02337e-07
1.02337e-07
1.01351e-07
1.01351e-07
1.02337e-07
1.01351e-07
1.01351e-07
1.02411e-07
1.01277e-07
1.02337e-07
1.01351e-07
1.01351e-07
1.01277e-07
1.01098e-07
9.99652e-08
1.01023e-07
1.01023e-07
1.0004e-07
1.0004e-07
1.01098e-07
9.99652e-08
1.01023e-07
1.01023e-07
1.0004e-07
1.0004e-07
1.01023e-07
1.0004e-07
1.0004e-07
1.01098e-07
9.99652e-08
1.01023e-07
1.0004e-07
1.0004e-07
9.99652e-08
9.97865e-08
9.86557e-08
9.97121e-08
9.97121e-08
9.87301e-08
9.87301e-08
9.97865e-08
9.86557e-08
9.97121e-08
9.97121e-08
9.87301e-08
9.87301e-08
9.97121e-08
9.87301e-08
9.87301e-08
9.97866e-08
9.86557e-08
9.97121e-08
9.87301e-08
9.87301e-08
9.86556e-08
9.84773e-08
9.73477e-08
9.84029e-08
9.84029e-08
9.7422e-08
9.7422e-08
9.84773e-08
9.73477e-08
9.84029e-08
9.84029e-08
9.7422e-08
9.7422e-08
9.84029e-08
9.7422e-08
9.7422e-08
9.84772e-08
9.73477e-08
9.84029e-08
9.7422e-08
9.7422e-08
9.73477e-08
9.71695e-08
9.6041e-08
9.70952e-08
9.70952e-08
9.61152e-08
9.61152e-08
9.71695e-08
9.6041e-08
9.70952e-08
9.70952e-08
9.61152e-08
9.61152e-08
9.70952e-08
9.61152e-08
9.61152e-08
9.71695e-08
9.6041e-08
9.70952e-08
9.61152e-08
9.61152e-08
9.6041e-08
9.58629e-08
9.47352e-08
9.57887e-08
9.57887e-08
9.48093e-08
9.48093e-08
9.58628e-08
9.47351e-08
9.57887e-08
9.57887e-08
9.48093e-08
9.48093e-08
9.57887e-08
9.48093e-08
9.48093e-08
9.58629e-08
9.47352e-08
9.57887e-08
9.48093e-08
9.48093e-08
9.47351e-08
9.45571e-08
9.343e-08
9.4483e-08
9.4483e-08
9.35042e-08
9.35042e-08
9.45571e-08
9.34301e-08
9.4483e-08
9.4483e-08
9.35042e-08
9.35042e-08
9.4483e-08
9.35042e-08
9.35042e-08
9.45572e-08
9.343e-08
9.4483e-08
9.35042e-08
9.35042e-08
9.343e-08
9.32521e-08
9.21255e-08
9.3178e-08
9.3178e-08
9.21996e-08
9.21996e-08
9.32521e-08
9.21254e-08
9.3178e-08
9.3178e-08
9.21996e-08
9.21996e-08
9.3178e-08
9.21996e-08
9.21996e-08
9.32521e-08
9.21254e-08
9.3178e-08
9.21995e-08
9.21996e-08
9.21255e-08
9.19476e-08
9.08213e-08
9.18735e-08
9.18735e-08
9.08954e-08
9.08954e-08
9.19476e-08
9.08214e-08
9.18735e-08
9.18735e-08
9.08954e-08
9.08954e-08
9.18735e-08
9.08954e-08
9.08954e-08
9.19476e-08
9.08214e-08
9.18735e-08
9.08954e-08
9.08954e-08
9.08213e-08
9.06435e-08
8.95177e-08
9.05695e-08
9.05695e-08
8.95917e-08
8.95917e-08
9.06436e-08
8.95176e-08
9.05694e-08
9.05695e-08
8.95917e-08
8.95917e-08
9.05694e-08
8.95917e-08
8.95917e-08
9.06435e-08
8.95176e-08
9.05694e-08
8.95917e-08
8.95917e-08
8.95176e-08
8.93399e-08
8.82142e-08
8.92658e-08
8.92658e-08
8.82882e-08
8.82882e-08
8.93398e-08
8.82142e-08
8.92658e-08
8.92658e-08
8.82883e-08
8.82882e-08
8.92658e-08
8.82882e-08
8.82883e-08
8.93399e-08
8.82142e-08
8.92658e-08
8.82883e-08
8.82883e-08
8.82142e-08
8.80365e-08
8.69111e-08
8.79624e-08
8.79624e-08
8.69851e-08
8.6985e-08
8.80365e-08
8.6911e-08
8.79624e-08
8.79624e-08
8.6985e-08
8.6985e-08
8.79624e-08
8.6985e-08
8.6985e-08
8.80365e-08
8.6911e-08
8.79624e-08
8.6985e-08
8.6985e-08
8.6911e-08
8.67333e-08
8.56079e-08
8.66593e-08
8.66592e-08
8.56819e-08
8.56819e-08
8.67333e-08
8.56079e-08
8.66593e-08
8.66593e-08
8.5682e-08
8.5682e-08
8.66593e-08
8.56819e-08
8.5682e-08
8.67333e-08
8.5608e-08
8.66593e-08
8.5682e-08
8.56819e-08
8.56079e-08
8.54302e-08
8.43049e-08
8.53562e-08
8.53562e-08
8.43789e-08
8.43789e-08
8.54303e-08
8.4305e-08
8.53562e-08
8.53562e-08
8.43789e-08
8.4379e-08
8.53562e-08
8.43789e-08
8.43789e-08
8.54303e-08
8.43049e-08
8.53562e-08
8.43789e-08
8.43789e-08
8.43049e-08
8.41272e-08
8.30019e-08
8.40532e-08
8.40532e-08
8.30759e-08
8.30759e-08
8.41273e-08
8.30019e-08
8.40532e-08
8.40532e-08
8.30759e-08
8.30759e-08
8.40532e-08
8.30759e-08
8.30759e-08
8.41272e-08
8.30019e-08
8.40532e-08
8.30759e-08
8.30759e-08
8.30019e-08
8.28242e-08
8.16989e-08
8.27502e-08
8.27502e-08
8.17729e-08
8.17729e-08
8.28242e-08
8.16989e-08
8.27502e-08
8.27501e-08
8.17729e-08
8.17729e-08
8.27502e-08
8.17729e-08
8.17729e-08
8.28242e-08
8.16989e-08
8.27502e-08
8.17729e-08
8.17729e-08
8.16989e-08
8.15212e-08
8.03958e-08
8.14471e-08
8.14471e-08
8.04698e-08
8.04698e-08
8.15211e-08
8.03958e-08
8.14471e-08
8.14472e-08
8.04699e-08
8.04698e-08
8.14471e-08
8.04698e-08
8.04699e-08
8.15212e-08
8.03958e-08
8.14472e-08
8.04699e-08
8.04699e-08
8.03959e-08
8.02181e-08
7.90928e-08
8.01441e-08
8.01441e-08
7.91668e-08
7.91668e-08
8.02181e-08
7.90928e-08
8.01441e-08
8.01441e-08
7.91668e-08
7.91668e-08
8.01441e-08
7.91668e-08
7.91668e-08
8.02181e-08
7.90928e-08
8.01441e-08
7.91668e-08
7.91668e-08
7.90927e-08
7.8915e-08
7.77896e-08
7.8841e-08
7.8841e-08
7.78636e-08
7.78636e-08
7.89151e-08
7.77896e-08
7.8841e-08
7.8841e-08
7.78636e-08
7.78636e-08
7.8841e-08
7.78636e-08
7.78636e-08
7.8915e-08
7.77896e-08
7.8841e-08
7.78636e-08
7.78636e-08
7.77896e-08
7.76119e-08
7.64865e-08
7.75379e-08
7.75378e-08
7.65605e-08
7.65605e-08
7.76119e-08
7.64865e-08
7.75378e-08
7.75378e-08
7.65605e-08
7.65605e-08
7.75378e-08
7.65605e-08
7.65605e-08
7.76119e-08
7.64865e-08
7.75378e-08
7.65605e-08
7.65605e-08
7.64865e-08
7.63088e-08
7.51834e-08
7.62347e-08
7.62347e-08
7.52574e-08
7.52574e-08
7.63088e-08
7.51834e-08
7.62347e-08
7.62347e-08
7.52574e-08
7.52574e-08
7.62347e-08
7.52574e-08
7.52574e-08
7.63088e-08
7.51834e-08
7.62347e-08
7.52574e-08
7.52574e-08
7.51834e-08
7.50057e-08
7.38803e-08
7.49317e-08
7.49316e-08
7.39544e-08
7.39543e-08
7.50057e-08
7.38803e-08
7.49316e-08
7.49317e-08
7.39544e-08
7.39544e-08
7.49316e-08
7.39544e-08
7.39543e-08
7.50057e-08
7.38804e-08
7.49316e-08
7.39543e-08
7.39544e-08
7.38803e-08
7.37026e-08
7.25773e-08
7.36286e-08
7.36286e-08
7.26513e-08
7.26513e-08
7.37026e-08
7.25773e-08
7.36286e-08
7.36286e-08
7.26513e-08
7.26513e-08
7.36286e-08
7.26513e-08
7.26513e-08
7.37027e-08
7.25773e-08
7.36286e-08
7.26513e-08
7.26513e-08
7.25773e-08
7.23996e-08
7.12743e-08
7.23256e-08
7.23256e-08
7.13483e-08
7.13483e-08
7.23996e-08
7.12743e-08
7.23256e-08
7.23256e-08
7.13483e-08
7.13483e-08
7.23256e-08
7.13483e-08
7.13483e-08
7.23996e-08
7.12743e-08
7.23255e-08
7.13483e-08
7.13483e-08
7.12743e-08
7.10966e-08
6.99712e-08
7.10225e-08
7.10225e-08
7.00453e-08
7.00452e-08
7.10965e-08
6.99713e-08
7.10225e-08
7.10225e-08
7.00453e-08
7.00453e-08
7.10225e-08
7.00453e-08
7.00453e-08
7.10966e-08
6.99712e-08
7.10225e-08
7.00452e-08
7.00453e-08
6.99713e-08
6.97935e-08
6.86682e-08
6.97195e-08
6.97195e-08
6.87422e-08
6.87423e-08
6.97935e-08
6.86682e-08
6.97195e-08
6.97195e-08
6.87423e-08
6.87422e-08
6.97195e-08
6.87422e-08
6.87422e-08
6.97935e-08
6.86682e-08
6.97195e-08
6.87422e-08
6.87422e-08
6.86682e-08
6.84905e-08
6.73652e-08
6.84165e-08
6.84165e-08
6.74392e-08
6.74392e-08
6.84905e-08
6.73652e-08
6.84165e-08
6.84165e-08
6.74392e-08
6.74392e-08
6.84165e-08
6.74392e-08
6.74392e-08
6.84906e-08
6.73652e-08
6.84165e-08
6.74392e-08
6.74392e-08
6.73652e-08
6.71875e-08
6.60622e-08
6.71134e-08
6.71134e-08
6.61362e-08
6.61362e-08
6.71875e-08
6.60622e-08
6.71134e-08
6.71135e-08
6.61362e-08
6.61361e-08
6.71134e-08
6.61362e-08
6.61362e-08
6.71875e-08
6.60621e-08
6.71134e-08
6.61362e-08
6.61361e-08
6.60622e-08
6.58844e-08
6.47591e-08
6.58104e-08
6.58104e-08
6.48331e-08
6.48331e-08
6.58844e-08
6.47591e-08
6.58104e-08
6.58104e-08
6.48331e-08
6.48331e-08
6.58104e-08
6.48331e-08
6.48331e-08
6.58844e-08
6.47591e-08
6.58104e-08
6.48331e-08
6.48332e-08
6.47592e-08
6.45814e-08
6.34561e-08
6.45074e-08
6.45074e-08
6.35301e-08
6.35301e-08
6.45814e-08
6.34561e-08
6.45074e-08
6.45074e-08
6.35301e-08
6.35301e-08
6.45074e-08
6.35301e-08
6.35301e-08
6.45814e-08
6.34561e-08
6.45074e-08
6.35301e-08
6.35302e-08
6.34561e-08
6.32784e-08
6.21531e-08
6.32044e-08
6.32044e-08
6.22271e-08
6.22271e-08
6.32784e-08
6.21531e-08
6.32044e-08
6.32044e-08
6.22271e-08
6.22272e-08
6.32044e-08
6.22271e-08
6.22271e-08
6.32785e-08
6.21531e-08
6.32044e-08
6.22271e-08
6.22271e-08
6.21531e-08
6.19754e-08
6.08501e-08
6.19014e-08
6.19014e-08
6.09241e-08
6.09241e-08
6.19754e-08
6.08501e-08
6.19014e-08
6.19014e-08
6.09241e-08
6.09241e-08
6.19014e-08
6.09241e-08
6.09241e-08
6.19754e-08
6.08501e-08
6.19014e-08
6.09241e-08
6.09241e-08
6.08501e-08
6.06724e-08
5.9547e-08
6.05983e-08
6.05984e-08
5.9621e-08
5.96211e-08
6.06724e-08
5.95471e-08
6.05983e-08
6.05983e-08
5.9621e-08
5.96211e-08
6.05984e-08
5.96211e-08
5.96211e-08
6.06724e-08
5.9547e-08
6.05983e-08
5.9621e-08
5.96211e-08
5.9547e-08
5.93694e-08
5.8244e-08
5.92953e-08
5.92953e-08
5.8318e-08
5.8318e-08
5.93693e-08
5.8244e-08
5.92953e-08
5.92953e-08
5.8318e-08
5.83181e-08
5.92953e-08
5.8318e-08
5.8318e-08
5.93694e-08
5.8244e-08
5.92953e-08
5.8318e-08
5.83181e-08
5.8244e-08
5.80663e-08
5.6941e-08
5.79923e-08
5.79923e-08
5.7015e-08
5.7015e-08
5.80663e-08
5.6941e-08
5.79923e-08
5.79923e-08
5.7015e-08
5.7015e-08
5.79923e-08
5.7015e-08
5.7015e-08
5.80663e-08
5.6941e-08
5.79923e-08
5.7015e-08
5.7015e-08
5.6941e-08
5.67633e-08
5.5638e-08
5.66892e-08
5.66893e-08
5.57119e-08
5.5712e-08
5.67633e-08
5.56379e-08
5.66892e-08
5.66893e-08
5.5712e-08
5.5712e-08
5.66893e-08
5.5712e-08
5.5712e-08
5.67633e-08
5.5638e-08
5.66893e-08
5.5712e-08
5.5712e-08
5.56379e-08
5.54602e-08
5.43348e-08
5.53862e-08
5.53862e-08
5.44089e-08
5.44089e-08
5.54602e-08
5.43348e-08
5.53862e-08
5.53862e-08
5.44088e-08
5.44089e-08
5.53862e-08
5.44089e-08
5.44089e-08
5.54602e-08
5.43348e-08
5.53862e-08
5.44089e-08
5.44088e-08
5.43348e-08
5.41571e-08
5.30317e-08
5.40831e-08
5.40831e-08
5.31058e-08
5.31057e-08
5.41571e-08
5.30317e-08
5.40831e-08
5.40831e-08
5.31057e-08
5.31057e-08
5.40831e-08
5.31058e-08
5.31057e-08
5.41571e-08
5.30317e-08
5.40831e-08
5.31057e-08
5.31058e-08
5.30317e-08
5.2854e-08
5.17287e-08
5.278e-08
5.278e-08
5.18026e-08
5.18026e-08
5.2854e-08
5.17286e-08
5.27799e-08
5.278e-08
5.18027e-08
5.18026e-08
5.278e-08
5.18026e-08
5.18026e-08
5.2854e-08
5.17286e-08
5.278e-08
5.18027e-08
5.18026e-08
5.17286e-08
5.15509e-08
5.04256e-08
5.14769e-08
5.14769e-08
5.04996e-08
5.04996e-08
5.15509e-08
5.04256e-08
5.14769e-08
5.14769e-08
5.04996e-08
5.04996e-08
5.14769e-08
5.04996e-08
5.04996e-08
5.15509e-08
5.04256e-08
5.14769e-08
5.04996e-08
5.04996e-08
5.04256e-08
5.02479e-08
4.91226e-08
5.01739e-08
5.01739e-08
4.91966e-08
4.91966e-08
5.02479e-08
4.91226e-08
5.01738e-08
5.01739e-08
4.91966e-08
4.91966e-08
5.01739e-08
4.91966e-08
4.91966e-08
5.02479e-08
4.91226e-08
5.01739e-08
4.91966e-08
4.91966e-08
4.91226e-08
4.89449e-08
4.78195e-08
4.88708e-08
4.88709e-08
4.78935e-08
4.78935e-08
4.89449e-08
4.78195e-08
4.88709e-08
4.88708e-08
4.78935e-08
4.78935e-08
4.88709e-08
4.78935e-08
4.78935e-08
4.89449e-08
4.78195e-08
4.88708e-08
4.78935e-08
4.78935e-08
4.78195e-08
4.76418e-08
4.65165e-08
4.75678e-08
4.75677e-08
4.65905e-08
4.65905e-08
4.76418e-08
4.65164e-08
4.75678e-08
4.75678e-08
4.65905e-08
4.65905e-08
4.75678e-08
4.65905e-08
4.65905e-08
4.76418e-08
4.65165e-08
4.75678e-08
4.65905e-08
4.65905e-08
4.65165e-08
4.63388e-08
4.52134e-08
4.62647e-08
4.62647e-08
4.52875e-08
4.52875e-08
4.63387e-08
4.52135e-08
4.62647e-08
4.62647e-08
4.52874e-08
4.52875e-08
4.62647e-08
4.52875e-08
4.52874e-08
4.63388e-08
4.52134e-08
4.62647e-08
4.52875e-08
4.52875e-08
4.52134e-08
4.50357e-08
4.39105e-08
4.49617e-08
4.49617e-08
4.39845e-08
4.39845e-08
4.50357e-08
4.39104e-08
4.49617e-08
4.49617e-08
4.39845e-08
4.39844e-08
4.49617e-08
4.39844e-08
4.39845e-08
4.50358e-08
4.39104e-08
4.49617e-08
4.39845e-08
4.39845e-08
4.39105e-08
4.37328e-08
4.26074e-08
4.36587e-08
4.36587e-08
4.26814e-08
4.26815e-08
4.37327e-08
4.26074e-08
4.36587e-08
4.36587e-08
4.26814e-08
4.26814e-08
4.36587e-08
4.26814e-08
4.26814e-08
4.37327e-08
4.26074e-08
4.36587e-08
4.26814e-08
4.26814e-08
4.26074e-08
4.24297e-08
4.13044e-08
4.23557e-08
4.23557e-08
4.13784e-08
4.13784e-08
4.24297e-08
4.13043e-08
4.23557e-08
4.23557e-08
4.13784e-08
4.13784e-08
4.23557e-08
4.13784e-08
4.13784e-08
4.24298e-08
4.13043e-08
4.23557e-08
4.13784e-08
4.13784e-08
4.13044e-08
4.11267e-08
4.00013e-08
4.10526e-08
4.10526e-08
4.00753e-08
4.00753e-08
4.11266e-08
4.00013e-08
4.10526e-08
4.10526e-08
4.00753e-08
4.00753e-08
4.10526e-08
4.00753e-08
4.00753e-08
4.11267e-08
4.00013e-08
4.10526e-08
4.00753e-08
4.00753e-08
4.00013e-08
3.98236e-08
3.86983e-08
3.97495e-08
3.97496e-08
3.87723e-08
3.87723e-08
3.98236e-08
3.86983e-08
3.97495e-08
3.97496e-08
3.87723e-08
3.87723e-08
3.97496e-08
3.87723e-08
3.87723e-08
3.98236e-08
3.86983e-08
3.97496e-08
3.87723e-08
3.87723e-08
3.86983e-08
3.85206e-08
3.73953e-08
3.84466e-08
3.84466e-08
3.74693e-08
3.74693e-08
3.85206e-08
3.73953e-08
3.84466e-08
3.84466e-08
3.74693e-08
3.74693e-08
3.84466e-08
3.74694e-08
3.74693e-08
3.85206e-08
3.73953e-08
3.84466e-08
3.74694e-08
3.74693e-08
3.73953e-08
3.72176e-08
3.60924e-08
3.71436e-08
3.71436e-08
3.61664e-08
3.61663e-08
3.72176e-08
3.60923e-08
3.71436e-08
3.71436e-08
3.61663e-08
3.61664e-08
3.71436e-08
3.61664e-08
3.61664e-08
3.72177e-08
3.60924e-08
3.71436e-08
3.61664e-08
3.61664e-08
3.60924e-08
3.59147e-08
3.47893e-08
3.58406e-08
3.58406e-08
3.48634e-08
3.48634e-08
3.59147e-08
3.47894e-08
3.58406e-08
3.58406e-08
3.48634e-08
3.48633e-08
3.58406e-08
3.48634e-08
3.48634e-08
3.59147e-08
3.47893e-08
3.58406e-08
3.48634e-08
3.48634e-08
3.47893e-08
3.46116e-08
3.34863e-08
3.45376e-08
3.45376e-08
3.35603e-08
3.35604e-08
3.46117e-08
3.34864e-08
3.45376e-08
3.45376e-08
3.35603e-08
3.35604e-08
3.45376e-08
3.35604e-08
3.35604e-08
3.46117e-08
3.34863e-08
3.45376e-08
3.35604e-08
3.35603e-08
3.34863e-08
3.33086e-08
3.21834e-08
3.32346e-08
3.32346e-08
3.22573e-08
3.22574e-08
3.33087e-08
3.21833e-08
3.32346e-08
3.32346e-08
3.22574e-08
3.22573e-08
3.32346e-08
3.22573e-08
3.22574e-08
3.33086e-08
3.21833e-08
3.32346e-08
3.22573e-08
3.22573e-08
3.21833e-08
3.20056e-08
3.08803e-08
3.19316e-08
3.19316e-08
3.09543e-08
3.09543e-08
3.20056e-08
3.08803e-08
3.19316e-08
3.19316e-08
3.09543e-08
3.09543e-08
3.19316e-08
3.09543e-08
3.09543e-08
3.20056e-08
3.08803e-08
3.19316e-08
3.09543e-08
3.09543e-08
3.08803e-08
3.07026e-08
2.95773e-08
3.06286e-08
3.06286e-08
2.96513e-08
2.96513e-08
3.07026e-08
2.95773e-08
3.06286e-08
3.06286e-08
2.96513e-08
2.96513e-08
3.06286e-08
2.96513e-08
2.96513e-08
3.07026e-08
2.95773e-08
3.06286e-08
2.96513e-08
2.96513e-08
2.95773e-08
2.93996e-08
2.82743e-08
2.93256e-08
2.93256e-08
2.83483e-08
2.83483e-08
2.93996e-08
2.82743e-08
2.93256e-08
2.93256e-08
2.83483e-08
2.83483e-08
2.93256e-08
2.83483e-08
2.83483e-08
2.93996e-08
2.82743e-08
2.93256e-08
2.83483e-08
2.83483e-08
2.82743e-08
2.80966e-08
2.69712e-08
2.80225e-08
2.80225e-08
2.70453e-08
2.70453e-08
2.80966e-08
2.69713e-08
2.80225e-08
2.80225e-08
2.70453e-08
2.70453e-08
2.80225e-08
2.70453e-08
2.70453e-08
2.80966e-08
2.69713e-08
2.80225e-08
2.70453e-08
2.70453e-08
2.69712e-08
2.67935e-08
2.56683e-08
2.67195e-08
2.67195e-08
2.57423e-08
2.57423e-08
2.67935e-08
2.56683e-08
2.67195e-08
2.67195e-08
2.57423e-08
2.57423e-08
2.67195e-08
2.57423e-08
2.57423e-08
2.67936e-08
2.56683e-08
2.67195e-08
2.57423e-08
2.57423e-08
2.56683e-08
2.54906e-08
2.43653e-08
2.54165e-08
2.54165e-08
2.44393e-08
2.44393e-08
2.54906e-08
2.43653e-08
2.54165e-08
2.54165e-08
2.44393e-08
2.44393e-08
2.54165e-08
2.44393e-08
2.44393e-08
2.54906e-08
2.43653e-08
2.54165e-08
2.44393e-08
2.44393e-08
2.43653e-08
2.41876e-08
2.30623e-08
2.41136e-08
2.41136e-08
2.31363e-08
2.31363e-08
2.41876e-08
2.30623e-08
2.41136e-08
2.41135e-08
2.31364e-08
2.31363e-08
2.41136e-08
2.31363e-08
2.31363e-08
2.41876e-08
2.30623e-08
2.41136e-08
2.31363e-08
2.31363e-08
2.30623e-08
2.28846e-08
2.17593e-08
2.28106e-08
2.28106e-08
2.18333e-08
2.18333e-08
2.28846e-08
2.17593e-08
2.28106e-08
2.28106e-08
2.18333e-08
2.18333e-08
2.28106e-08
2.18333e-08
2.18333e-08
2.28847e-08
2.17593e-08
2.28106e-08
2.18333e-08
2.18333e-08
2.17593e-08
2.15816e-08
2.04563e-08
2.15075e-08
2.15075e-08
2.05303e-08
2.05303e-08
2.15816e-08
2.04563e-08
2.15075e-08
2.15075e-08
2.05303e-08
2.05303e-08
2.15075e-08
2.05303e-08
2.05303e-08
2.15816e-08
2.04563e-08
2.15075e-08
2.05303e-08
2.05303e-08
2.04563e-08
2.02786e-08
1.91532e-08
2.02045e-08
2.02045e-08
1.92272e-08
1.92272e-08
2.02785e-08
1.91532e-08
2.02045e-08
2.02045e-08
1.92272e-08
1.92272e-08
2.02045e-08
1.92272e-08
1.92272e-08
2.02786e-08
1.91532e-08
2.02045e-08
1.92272e-08
1.92272e-08
1.91532e-08
1.89755e-08
1.78502e-08
1.89015e-08
1.89015e-08
1.79242e-08
1.79242e-08
1.89755e-08
1.78502e-08
1.89015e-08
1.89015e-08
1.79242e-08
1.79242e-08
1.89015e-08
1.79242e-08
1.79242e-08
1.89755e-08
1.78502e-08
1.89015e-08
1.79242e-08
1.79242e-08
1.78502e-08
1.76725e-08
1.65472e-08
1.75985e-08
1.75985e-08
1.66212e-08
1.66212e-08
1.76725e-08
1.65472e-08
1.75984e-08
1.75985e-08
1.66212e-08
1.66211e-08
1.75984e-08
1.66211e-08
1.66211e-08
1.76725e-08
1.65471e-08
1.75984e-08
1.66211e-08
1.66211e-08
1.65471e-08
1.63694e-08
1.52441e-08
1.62954e-08
1.62954e-08
1.53181e-08
1.53181e-08
1.63694e-08
1.52441e-08
1.62954e-08
1.62954e-08
1.53181e-08
1.53181e-08
1.62954e-08
1.53181e-08
1.53181e-08
1.63694e-08
1.52441e-08
1.62953e-08
1.53181e-08
1.53181e-08
1.52441e-08
1.50663e-08
1.3941e-08
1.49923e-08
1.49923e-08
1.4015e-08
1.4015e-08
1.50663e-08
1.3941e-08
1.49923e-08
1.49923e-08
1.4015e-08
1.40151e-08
1.49923e-08
1.4015e-08
1.4015e-08
1.50664e-08
1.3941e-08
1.49923e-08
1.4015e-08
1.40151e-08
1.3941e-08
1.37633e-08
1.2638e-08
1.36893e-08
1.36892e-08
1.2712e-08
1.2712e-08
1.37633e-08
1.2638e-08
1.36893e-08
1.36893e-08
1.2712e-08
1.27121e-08
1.36893e-08
1.2712e-08
1.2712e-08
1.37633e-08
1.26381e-08
1.36893e-08
1.27121e-08
1.27121e-08
1.2638e-08
1.24603e-08
1.1335e-08
1.23862e-08
1.23862e-08
1.1409e-08
1.1409e-08
1.24603e-08
1.1335e-08
1.23863e-08
1.23863e-08
1.1409e-08
1.1409e-08
1.23863e-08
1.1409e-08
1.1409e-08
1.24604e-08
1.1335e-08
1.23863e-08
1.14091e-08
1.1409e-08
1.1335e-08
1.11573e-08
1.0032e-08
1.10832e-08
1.10832e-08
1.0106e-08
1.0106e-08
1.11573e-08
1.0032e-08
1.10832e-08
1.10833e-08
1.01059e-08
1.01059e-08
1.10833e-08
1.0106e-08
1.01059e-08
1.11573e-08
1.00319e-08
1.10833e-08
1.01059e-08
1.01059e-08
1.00319e-08
9.85426e-09
8.72895e-09
9.78021e-09
9.7802e-09
8.80295e-09
8.80293e-09
9.85426e-09
8.72893e-09
9.78018e-09
9.78017e-09
8.80292e-09
8.80286e-09
9.78017e-09
8.80291e-09
8.80285e-09
9.85421e-09
8.72881e-09
9.78016e-09
8.80283e-09
8.80284e-09
8.72882e-09
8.55122e-09
7.42587e-09
8.4772e-09
8.47718e-09
7.4999e-09
7.49989e-09
8.55122e-09
7.42589e-09
8.47718e-09
8.47709e-09
7.49989e-09
7.49982e-09
8.47709e-09
7.49987e-09
7.4998e-09
8.55112e-09
7.42579e-09
8.47707e-09
7.49981e-09
7.49978e-09
7.42577e-09
7.24818e-09
6.12286e-09
7.17416e-09
7.17416e-09
6.19687e-09
6.19686e-09
7.24818e-09
6.12284e-09
7.17415e-09
7.17408e-09
6.19685e-09
6.19682e-09
7.17406e-09
6.19687e-09
6.19682e-09
7.2481e-09
6.1228e-09
7.17406e-09
6.1968e-09
6.19682e-09
6.12281e-09
5.94517e-09
4.81978e-09
5.87116e-09
5.87115e-09
4.8938e-09
4.89382e-09
5.94514e-09
4.81981e-09
5.87115e-09
5.87112e-09
4.8938e-09
4.89381e-09
5.87114e-09
4.89381e-09
4.89382e-09
5.94512e-09
4.81979e-09
5.87113e-09
4.89381e-09
4.8938e-09
4.81976e-09
4.64209e-09
3.51657e-09
4.56817e-09
4.56819e-09
3.59061e-09
3.59061e-09
4.64211e-09
3.51656e-09
4.56818e-09
4.56819e-09
3.59062e-09
3.59065e-09
4.5682e-09
3.59061e-09
3.59064e-09
4.64211e-09
3.51661e-09
4.56818e-09
3.59066e-09
3.59065e-09
3.51659e-09
3.33891e-09
2.21327e-09
3.26522e-09
3.26522e-09
2.28674e-09
2.28674e-09
3.33888e-09
2.21327e-09
3.26523e-09
3.26527e-09
2.28676e-09
2.28682e-09
3.26527e-09
2.28676e-09
2.28681e-09
3.33896e-09
2.21337e-09
3.26528e-09
2.28684e-09
2.28683e-09
2.21336e-09
2.03641e-09
9.11471e-10
1.96204e-09
1.96203e-09
9.96058e-10
9.96067e-10
2.03639e-09
9.11469e-10
1.96204e-09
1.96213e-09
9.96164e-10
9.96193e-10
1.96211e-09
9.96135e-10
9.96146e-10
2.0365e-09
9.11597e-10
1.96212e-09
9.9623e-10
9.96287e-10
9.11599e-10
7.31201e-10
6.84125e-10
6.84152e-10
7.31188e-10
6.84256e-10
6.8427e-10
6.58948e-10
6.59053e-10
6.59051e-10
6.84221e-10
7.31319e-10
6.84377e-10
1.28895e-07
1.29516e-07
1.29182e-07
1.29182e-07
1.3093e-07
1.29776e-07
1.32315e-07
1.29405e-07
1.3093e-07
1.29776e-07
1.29405e-07
1.32315e-07
1.3007e-07
1.32783e-07
1.32783e-07
1.26236e-07
1.27412e-07
1.27503e-07
1.26193e-07
1.27394e-07
1.26178e-07
1.26236e-07
1.27412e-07
1.27503e-07
1.26193e-07
1.27551e-07
1.27551e-07
1.27551e-07
1.25258e-07
1.25258e-07
1.25258e-07
1.25258e-07
1.26298e-07
1.27513e-07
1.27527e-07
1.26615e-07
1.27583e-07
1.26243e-07
1.26669e-07
1.27394e-07
1.26178e-07
1.26298e-07
1.27527e-07
1.27513e-07
1.26615e-07
1.27583e-07
1.26669e-07
1.26243e-07
1.27486e-07
1.27486e-07
1.26415e-07
1.26222e-07
1.26222e-07
1.23801e-07
1.24609e-07
1.24629e-07
1.23787e-07
1.24603e-07
1.23782e-07
1.23801e-07
1.24609e-07
1.24629e-07
1.23786e-07
1.24627e-07